# LAMMPS data file written by Ovito Basic 3.0.0-dev791
384 atoms
2 atom types
0.0 18.6130886078 xlo xhi
0.0 18.6130886078 ylo yhi
0.0 11.8768119812 zlo zhi

Atoms  # charge

1 1 0.0 2.326636076 2.326636076 1.484601498
2 1 0.0 2.326636076 2.326636076 4.453804493
3 1 0.0 2.326636076 2.326636076 7.423007488
4 1 0.0 2.326636076 2.326636076 10.392210007
5 1 0.0 2.326636076 6.97990799 1.484601498
6 1 0.0 2.326636076 6.97990799 4.453804493
7 1 0.0 2.326636076 6.97990799 7.423007488
8 1 0.0 2.326636076 6.97990799 10.392210007
9 1 0.0 2.326636076 11.633180618 1.484601498
10 1 0.0 2.326636076 11.633180618 4.453804493
11 1 0.0 2.326636076 11.633180618 7.423007488
12 1 0.0 2.326636076 11.633180618 10.392210007
13 1 0.0 2.326636076 16.286453247 1.484601498
14 1 0.0 2.326636076 16.286453247 4.453804493
15 1 0.0 2.326636076 16.286453247 7.423007488
16 1 0.0 2.326636076 16.286453247 10.392210007
17 1 0.0 6.97990799 2.326636076 1.484601498
18 1 0.0 6.97990799 2.326636076 4.453804493
19 1 0.0 6.97990799 2.326636076 7.423007488
20 1 0.0 6.97990799 2.326636076 10.392210007
21 1 0.0 6.97990799 6.97990799 1.484601498
22 1 0.0 6.97990799 6.97990799 4.453804493
23 1 0.0 6.97990799 6.97990799 7.423007488
24 1 0.0 6.97990799 6.97990799 10.392210007
25 1 0.0 6.97990799 11.633180618 1.484601498
26 1 0.0 6.97990799 11.633180618 4.453804493
27 1 0.0 6.97990799 11.633180618 7.423007488
28 1 0.0 6.97990799 11.633180618 10.392210007
29 1 0.0 6.97990799 16.286453247 1.484601498
30 1 0.0 6.97990799 16.286453247 4.453804493
31 1 0.0 6.97990799 16.286453247 7.423007488
32 1 0.0 6.97990799 16.286453247 10.392210007
33 1 0.0 11.633180618 2.326636076 1.484601498
34 1 0.0 11.633180618 2.326636076 4.453804493
35 1 0.0 11.633180618 2.326636076 7.423007488
36 1 0.0 11.633180618 2.326636076 10.392210007
37 1 0.0 11.633180618 6.97990799 1.484601498
38 1 0.0 11.633180618 6.97990799 4.453804493
39 1 0.0 11.633180618 6.97990799 7.423007488
40 1 0.0 11.633180618 6.97990799 10.392210007
41 1 0.0 11.633180618 11.633180618 1.484601498
42 1 0.0 11.633180618 11.633180618 4.453804493
43 1 0.0 11.633180618 11.633180618 7.423007488
44 1 0.0 11.633180618 11.633180618 10.392210007
45 1 0.0 11.633180618 16.286453247 1.484601498
46 1 0.0 11.633180618 16.286453247 4.453804493
47 1 0.0 11.633180618 16.286453247 7.423007488
48 1 0.0 11.633180618 16.286453247 10.392210007
49 1 0.0 16.286453247 2.326636076 1.484601498
50 1 0.0 16.286453247 2.326636076 4.453804493
51 1 0.0 16.286453247 2.326636076 7.423007488
52 1 0.0 16.286453247 2.326636076 10.392210007
53 1 0.0 16.286453247 6.97990799 1.484601498
54 1 0.0 16.286453247 6.97990799 4.453804493
55 1 0.0 16.286453247 6.97990799 7.423007488
56 1 0.0 16.286453247 6.97990799 10.392210007
57 1 0.0 16.286453247 11.633180618 1.484601498
58 1 0.0 16.286453247 11.633180618 4.453804493
59 1 0.0 16.286453247 11.633180618 7.423007488
60 1 0.0 16.286453247 11.633180618 10.392210007
61 1 0.0 16.286453247 16.286453247 1.484601498
62 1 0.0 16.286453247 16.286453247 4.453804493
63 1 0.0 16.286453247 16.286453247 7.423007488
64 1 0.0 16.286453247 16.286453247 10.392210007
65 1 0.0 0.0 0.0 0.0
66 1 0.0 0.0 0.0 2.969202995
67 1 0.0 0.0 0.0 5.938405991
68 1 0.0 0.0 0.0 8.907608986
69 1 0.0 0.0 4.653272152 0.0
70 1 0.0 0.0 4.653272152 2.969202995
71 1 0.0 0.0 4.653272152 5.938405991
72 1 0.0 0.0 4.653272152 8.907608986
73 1 0.0 0.0 9.306544304 0.0
74 1 0.0 0.0 9.306544304 2.969202995
75 1 0.0 0.0 9.306544304 5.938405991
76 1 0.0 0.0 9.306544304 8.907608986
77 1 0.0 0.0 13.959815979 0.0
78 1 0.0 0.0 13.959815979 2.969202995
79 1 0.0 0.0 13.959815979 5.938405991
80 1 0.0 0.0 13.959815979 8.907608986
81 1 0.0 4.653272152 0.0 0.0
82 1 0.0 4.653272152 0.0 2.969202995
83 1 0.0 4.653272152 0.0 5.938405991
84 1 0.0 4.653272152 0.0 8.907608986
85 1 0.0 4.653272152 4.653272152 0.0
86 1 0.0 4.653272152 4.653272152 2.969202995
87 1 0.0 4.653272152 4.653272152 5.938405991
88 1 0.0 4.653272152 4.653272152 8.907608986
89 1 0.0 4.653272152 9.306544304 0.0
90 1 0.0 4.653272152 9.306544304 2.969202995
91 1 0.0 4.653272152 9.306544304 5.938405991
92 1 0.0 4.653272152 9.306544304 8.907608986
93 1 0.0 4.653272152 13.959815979 0.0
94 1 0.0 4.653272152 13.959815979 2.969202995
95 1 0.0 4.653272152 13.959815979 5.938405991
96 1 0.0 4.653272152 13.959815979 8.907608986
97 1 0.0 9.306544304 0.0 0.0
98 1 0.0 9.306544304 0.0 2.969202995
99 1 0.0 9.306544304 0.0 5.938405991
100 1 0.0 9.306544304 0.0 8.907608986
101 1 0.0 9.306544304 4.653272152 0.0
102 1 0.0 9.306544304 4.653272152 2.969202995
103 1 0.0 9.306544304 4.653272152 5.938405991
104 1 0.0 9.306544304 4.653272152 8.907608986
105 1 0.0 9.306544304 9.306544304 0.0
106 1 0.0 9.306544304 9.306544304 2.969202995
107 1 0.0 9.306544304 9.306544304 5.938405991
108 1 0.0 9.306544304 9.306544304 8.907608986
109 1 0.0 9.306544304 13.959815979 0.0
110 1 0.0 9.306544304 13.959815979 2.969202995
111 1 0.0 9.306544304 13.959815979 5.938405991
112 1 0.0 9.306544304 13.959815979 8.907608986
113 1 0.0 13.959815979 0.0 0.0
114 1 0.0 13.959815979 0.0 2.969202995
115 1 0.0 13.959815979 0.0 5.938405991
116 1 0.0 13.959815979 0.0 8.907608986
117 1 0.0 13.959815979 4.653272152 0.0
118 1 0.0 13.959815979 4.653272152 2.969202995
119 1 0.0 13.959815979 4.653272152 5.938405991
120 1 0.0 13.959815979 4.653272152 8.907608986
121 1 0.0 13.959815979 9.306544304 0.0
122 1 0.0 13.959815979 9.306544304 2.969202995
123 1 0.0 13.959815979 9.306544304 5.938405991
124 1 0.0 13.959815979 9.306544304 8.907608986
125 1 0.0 13.959815979 13.959815979 0.0
126 1 0.0 13.959815979 13.959815979 2.969202995
127 1 0.0 13.959815979 13.959815979 5.938405991
128 1 0.0 13.959815979 13.959815979 8.907608986
129 2 0.0 0.909342408 3.743929625 1.484601498
130 2 0.0 0.909342408 3.743929625 4.453804493
131 2 0.0 0.909342408 3.743929625 7.423007488
132 2 0.0 0.909342408 3.743929625 10.392210007
133 2 0.0 0.909342408 8.397201538 1.484601498
134 2 0.0 0.909342408 8.397201538 4.453804493
135 2 0.0 0.909342408 8.397201538 7.423007488
136 2 0.0 0.909342408 8.397201538 10.392210007
137 2 0.0 0.909342408 13.050474167 1.484601498
138 2 0.0 0.909342408 13.050474167 4.453804493
139 2 0.0 0.909342408 13.050474167 7.423007488
140 2 0.0 0.909342408 13.050474167 10.392210007
141 2 0.0 0.909342408 17.703746796 1.484601498
142 2 0.0 0.909342408 17.703746796 4.453804493
143 2 0.0 0.909342408 17.703746796 7.423007488
144 2 0.0 0.909342408 17.703746796 10.392210007
145 2 0.0 5.562614918 3.743929625 1.484601498
146 2 0.0 5.562614918 3.743929625 4.453804493
147 2 0.0 5.562614918 3.743929625 7.423007488
148 2 0.0 5.562614918 3.743929625 10.392210007
149 2 0.0 5.562614918 8.397201538 1.484601498
150 2 0.0 5.562614918 8.397201538 4.453804493
151 2 0.0 5.562614918 8.397201538 7.423007488
152 2 0.0 5.562614918 8.397201538 10.392210007
153 2 0.0 5.562614918 13.050474167 1.484601498
154 2 0.0 5.562614918 13.050474167 4.453804493
155 2 0.0 5.562614918 13.050474167 7.423007488
156 2 0.0 5.562614918 13.050474167 10.392210007
157 2 0.0 5.562614918 17.703746796 1.484601498
158 2 0.0 5.562614918 17.703746796 4.453804493
159 2 0.0 5.562614918 17.703746796 7.423007488
160 2 0.0 5.562614918 17.703746796 10.392210007
161 2 0.0 10.21588707 3.743929625 1.484601498
162 2 0.0 10.21588707 3.743929625 4.453804493
163 2 0.0 10.21588707 3.743929625 7.423007488
164 2 0.0 10.21588707 3.743929625 10.392210007
165 2 0.0 10.21588707 8.397201538 1.484601498
166 2 0.0 10.21588707 8.397201538 4.453804493
167 2 0.0 10.21588707 8.397201538 7.423007488
168 2 0.0 10.21588707 8.397201538 10.392210007
169 2 0.0 10.21588707 13.050474167 1.484601498
170 2 0.0 10.21588707 13.050474167 4.453804493
171 2 0.0 10.21588707 13.050474167 7.423007488
172 2 0.0 10.21588707 13.050474167 10.392210007
173 2 0.0 10.21588707 17.703746796 1.484601498
174 2 0.0 10.21588707 17.703746796 4.453804493
175 2 0.0 10.21588707 17.703746796 7.423007488
176 2 0.0 10.21588707 17.703746796 10.392210007
177 2 0.0 14.869158745 3.743929625 1.484601498
178 2 0.0 14.869158745 3.743929625 4.453804493
179 2 0.0 14.869158745 3.743929625 7.423007488
180 2 0.0 14.869158745 3.743929625 10.392210007
181 2 0.0 14.869158745 8.397201538 1.484601498
182 2 0.0 14.869158745 8.397201538 4.453804493
183 2 0.0 14.869158745 8.397201538 7.423007488
184 2 0.0 14.869158745 8.397201538 10.392210007
185 2 0.0 14.869158745 13.050474167 1.484601498
186 2 0.0 14.869158745 13.050474167 4.453804493
187 2 0.0 14.869158745 13.050474167 7.423007488
188 2 0.0 14.869158745 13.050474167 10.392210007
189 2 0.0 14.869158745 17.703746796 1.484601498
190 2 0.0 14.869158745 17.703746796 4.453804493
191 2 0.0 14.869158745 17.703746796 7.423007488
192 2 0.0 14.869158745 17.703746796 10.392210007
193 2 0.0 3.743929625 0.909342408 1.484601498
194 2 0.0 3.743929625 0.909342408 4.453804493
195 2 0.0 3.743929625 0.909342408 7.423007488
196 2 0.0 3.743929625 0.909342408 10.392210007
197 2 0.0 3.743929625 5.562614918 1.484601498
198 2 0.0 3.743929625 5.562614918 4.453804493
199 2 0.0 3.743929625 5.562614918 7.423007488
200 2 0.0 3.743929625 5.562614918 10.392210007
201 2 0.0 3.743929625 10.21588707 1.484601498
202 2 0.0 3.743929625 10.21588707 4.453804493
203 2 0.0 3.743929625 10.21588707 7.423007488
204 2 0.0 3.743929625 10.21588707 10.392210007
205 2 0.0 3.743929625 14.869158745 1.484601498
206 2 0.0 3.743929625 14.869158745 4.453804493
207 2 0.0 3.743929625 14.869158745 7.423007488
208 2 0.0 3.743929625 14.869158745 10.392210007
209 2 0.0 8.397201538 0.909342408 1.484601498
210 2 0.0 8.397201538 0.909342408 4.453804493
211 2 0.0 8.397201538 0.909342408 7.423007488
212 2 0.0 8.397201538 0.909342408 10.392210007
213 2 0.0 8.397201538 5.562614918 1.484601498
214 2 0.0 8.397201538 5.562614918 4.453804493
215 2 0.0 8.397201538 5.562614918 7.423007488
216 2 0.0 8.397201538 5.562614918 10.392210007
217 2 0.0 8.397201538 10.21588707 1.484601498
218 2 0.0 8.397201538 10.21588707 4.453804493
219 2 0.0 8.397201538 10.21588707 7.423007488
220 2 0.0 8.397201538 10.21588707 10.392210007
221 2 0.0 8.397201538 14.869158745 1.484601498
222 2 0.0 8.397201538 14.869158745 4.453804493
223 2 0.0 8.397201538 14.869158745 7.423007488
224 2 0.0 8.397201538 14.869158745 10.392210007
225 2 0.0 13.050474167 0.909342408 1.484601498
226 2 0.0 13.050474167 0.909342408 4.453804493
227 2 0.0 13.050474167 0.909342408 7.423007488
228 2 0.0 13.050474167 0.909342408 10.392210007
229 2 0.0 13.050474167 5.562614918 1.484601498
230 2 0.0 13.050474167 5.562614918 4.453804493
231 2 0.0 13.050474167 5.562614918 7.423007488
232 2 0.0 13.050474167 5.562614918 10.392210007
233 2 0.0 13.050474167 10.21588707 1.484601498
234 2 0.0 13.050474167 10.21588707 4.453804493
235 2 0.0 13.050474167 10.21588707 7.423007488
236 2 0.0 13.050474167 10.21588707 10.392210007
237 2 0.0 13.050474167 14.869158745 1.484601498
238 2 0.0 13.050474167 14.869158745 4.453804493
239 2 0.0 13.050474167 14.869158745 7.423007488
240 2 0.0 13.050474167 14.869158745 10.392210007
241 2 0.0 17.703746796 0.909342408 1.484601498
242 2 0.0 17.703746796 0.909342408 4.453804493
243 2 0.0 17.703746796 0.909342408 7.423007488
244 2 0.0 17.703746796 0.909342408 10.392210007
245 2 0.0 17.703746796 5.562614918 1.484601498
246 2 0.0 17.703746796 5.562614918 4.453804493
247 2 0.0 17.703746796 5.562614918 7.423007488
248 2 0.0 17.703746796 5.562614918 10.392210007
249 2 0.0 17.703746796 10.21588707 1.484601498
250 2 0.0 17.703746796 10.21588707 4.453804493
251 2 0.0 17.703746796 10.21588707 7.423007488
252 2 0.0 17.703746796 10.21588707 10.392210007
253 2 0.0 17.703746796 14.869158745 1.484601498
254 2 0.0 17.703746796 14.869158745 4.453804493
255 2 0.0 17.703746796 14.869158745 7.423007488
256 2 0.0 17.703746796 14.869158745 10.392210007
257 2 0.0 1.417293668 1.417293668 0.0
258 2 0.0 1.417293668 1.417293668 2.969202995
259 2 0.0 1.417293668 1.417293668 5.938405991
260 2 0.0 1.417293668 1.417293668 8.907608986
261 2 0.0 1.417293668 6.070565701 0.0
262 2 0.0 1.417293668 6.070565701 2.969202995
263 2 0.0 1.417293668 6.070565701 5.938405991
264 2 0.0 1.417293668 6.070565701 8.907608986
265 2 0.0 1.417293668 10.723837852 0.0
266 2 0.0 1.417293668 10.723837852 2.969202995
267 2 0.0 1.417293668 10.723837852 5.938405991
268 2 0.0 1.417293668 10.723837852 8.907608986
269 2 0.0 1.417293668 15.377109528 0.0
270 2 0.0 1.417293668 15.377109528 2.969202995
271 2 0.0 1.417293668 15.377109528 5.938405991
272 2 0.0 1.417293668 15.377109528 8.907608986
273 2 0.0 6.070565701 1.417293668 0.0
274 2 0.0 6.070565701 1.417293668 2.969202995
275 2 0.0 6.070565701 1.417293668 5.938405991
276 2 0.0 6.070565701 1.417293668 8.907608986
277 2 0.0 6.070565701 6.070565701 0.0
278 2 0.0 6.070565701 6.070565701 2.969202995
279 2 0.0 6.070565701 6.070565701 5.938405991
280 2 0.0 6.070565701 6.070565701 8.907608986
281 2 0.0 6.070565701 10.723837852 0.0
282 2 0.0 6.070565701 10.723837852 2.969202995
283 2 0.0 6.070565701 10.723837852 5.938405991
284 2 0.0 6.070565701 10.723837852 8.907608986
285 2 0.0 6.070565701 15.377109528 0.0
286 2 0.0 6.070565701 15.377109528 2.969202995
287 2 0.0 6.070565701 15.377109528 5.938405991
288 2 0.0 6.070565701 15.377109528 8.907608986
289 2 0.0 10.723837852 1.417293668 0.0
290 2 0.0 10.723837852 1.417293668 2.969202995
291 2 0.0 10.723837852 1.417293668 5.938405991
292 2 0.0 10.723837852 1.417293668 8.907608986
293 2 0.0 10.723837852 6.070565701 0.0
294 2 0.0 10.723837852 6.070565701 2.969202995
295 2 0.0 10.723837852 6.070565701 5.938405991
296 2 0.0 10.723837852 6.070565701 8.907608986
297 2 0.0 10.723837852 10.723837852 0.0
298 2 0.0 10.723837852 10.723837852 2.969202995
299 2 0.0 10.723837852 10.723837852 5.938405991
300 2 0.0 10.723837852 10.723837852 8.907608986
301 2 0.0 10.723837852 15.377109528 0.0
302 2 0.0 10.723837852 15.377109528 2.969202995
303 2 0.0 10.723837852 15.377109528 5.938405991
304 2 0.0 10.723837852 15.377109528 8.907608986
305 2 0.0 15.377109528 1.417293668 0.0
306 2 0.0 15.377109528 1.417293668 2.969202995
307 2 0.0 15.377109528 1.417293668 5.938405991
308 2 0.0 15.377109528 1.417293668 8.907608986
309 2 0.0 15.377109528 6.070565701 0.0
310 2 0.0 15.377109528 6.070565701 2.969202995
311 2 0.0 15.377109528 6.070565701 5.938405991
312 2 0.0 15.377109528 6.070565701 8.907608986
313 2 0.0 15.377109528 10.723837852 0.0
314 2 0.0 15.377109528 10.723837852 2.969202995
315 2 0.0 15.377109528 10.723837852 5.938405991
316 2 0.0 15.377109528 10.723837852 8.907608986
317 2 0.0 15.377109528 15.377109528 0.0
318 2 0.0 15.377109528 15.377109528 2.969202995
319 2 0.0 15.377109528 15.377109528 5.938405991
320 2 0.0 15.377109528 15.377109528 8.907608986
321 2 0.0 3.235978603 3.235978603 0.0
322 2 0.0 3.235978603 3.235978603 2.969202995
323 2 0.0 3.235978603 3.235978603 5.938405991
324 2 0.0 3.235978603 3.235978603 8.907608986
325 2 0.0 3.235978603 7.889250755 0.0
326 2 0.0 3.235978603 7.889250755 2.969202995
327 2 0.0 3.235978603 7.889250755 5.938405991
328 2 0.0 3.235978603 7.889250755 8.907608986
329 2 0.0 3.235978603 12.542523384 0.0
330 2 0.0 3.235978603 12.542523384 2.969202995
331 2 0.0 3.235978603 12.542523384 5.938405991
332 2 0.0 3.235978603 12.542523384 8.907608986
333 2 0.0 3.235978603 17.195795059 0.0
334 2 0.0 3.235978603 17.195795059 2.969202995
335 2 0.0 3.235978603 17.195795059 5.938405991
336 2 0.0 3.235978603 17.195795059 8.907608986
337 2 0.0 7.889250755 3.235978603 0.0
338 2 0.0 7.889250755 3.235978603 2.969202995
339 2 0.0 7.889250755 3.235978603 5.938405991
340 2 0.0 7.889250755 3.235978603 8.907608986
341 2 0.0 7.889250755 7.889250755 0.0
342 2 0.0 7.889250755 7.889250755 2.969202995
343 2 0.0 7.889250755 7.889250755 5.938405991
344 2 0.0 7.889250755 7.889250755 8.907608986
345 2 0.0 7.889250755 12.542523384 0.0
346 2 0.0 7.889250755 12.542523384 2.969202995
347 2 0.0 7.889250755 12.542523384 5.938405991
348 2 0.0 7.889250755 12.542523384 8.907608986
349 2 0.0 7.889250755 17.195795059 0.0
350 2 0.0 7.889250755 17.195795059 2.969202995
351 2 0.0 7.889250755 17.195795059 5.938405991
352 2 0.0 7.889250755 17.195795059 8.907608986
353 2 0.0 12.542523384 3.235978603 0.0
354 2 0.0 12.542523384 3.235978603 2.969202995
355 2 0.0 12.542523384 3.235978603 5.938405991
356 2 0.0 12.542523384 3.235978603 8.907608986
357 2 0.0 12.542523384 7.889250755 0.0
358 2 0.0 12.542523384 7.889250755 2.969202995
359 2 0.0 12.542523384 7.889250755 5.938405991
360 2 0.0 12.542523384 7.889250755 8.907608986
361 2 0.0 12.542523384 12.542523384 0.0
362 2 0.0 12.542523384 12.542523384 2.969202995
363 2 0.0 12.542523384 12.542523384 5.938405991
364 2 0.0 12.542523384 12.542523384 8.907608986
365 2 0.0 12.542523384 17.195795059 0.0
366 2 0.0 12.542523384 17.195795059 2.969202995
367 2 0.0 12.542523384 17.195795059 5.938405991
368 2 0.0 12.542523384 17.195795059 8.907608986
369 2 0.0 17.195795059 3.235978603 0.0
370 2 0.0 17.195795059 3.235978603 2.969202995
371 2 0.0 17.195795059 3.235978603 5.938405991
372 2 0.0 17.195795059 3.235978603 8.907608986
373 2 0.0 17.195795059 7.889250755 0.0
374 2 0.0 17.195795059 7.889250755 2.969202995
375 2 0.0 17.195795059 7.889250755 5.938405991
376 2 0.0 17.195795059 7.889250755 8.907608986
377 2 0.0 17.195795059 12.542523384 0.0
378 2 0.0 17.195795059 12.542523384 2.969202995
379 2 0.0 17.195795059 12.542523384 5.938405991
380 2 0.0 17.195795059 12.542523384 8.907608986
381 2 0.0 17.195795059 17.195795059 0.0
382 2 0.0 17.195795059 17.195795059 2.969202995
383 2 0.0 17.195795059 17.195795059 5.938405991
384 2 0.0 17.195795059 17.195795059 8.907608986
