LAMMPS data file via write_data, version 14 May 2016, timestep = 54

3584 atoms
3 atom types

7.5320966497154063e-01 3.2936685964928351e+01 xlo xhi
7.5320967067537015e-01 3.2936685959224519e+01 ylo yhi
7.5320965178130261e-01 3.2936685978118582e+01 zlo zhi

Masses

1 6.941
2 54.94
3 16

Atoms # charge

65 1 4.3886403339730651e-01 2.7646764265723345e+00 2.7646764315626080e+00 2.7646764150269507e+00 0 0 0
193 1 4.3886303858272596e-01 2.7646764272109605e+00 6.7876117514314540e+00 6.7876117396269793e+00 0 0 0
321 1 4.3886303983579339e-01 6.7876117478686693e+00 2.7646764322048387e+00 6.7876117396281801e+00 0 0 0
449 1 4.3886303289342643e-01 6.7876117478571354e+00 6.7876117514251995e+00 2.7646764156747401e+00 0 0 0
577 2 9.0328884909508400e-01 3.7704097969183641e+00 5.7818781834586366e+00 3.7704097862117889e+00 0 0 0
705 2 9.0329020356040846e-01 1.7589428147908197e+00 5.7818773814151143e+00 1.7589428024212117e+00 0 0 0
897 2 9.0328885304917017e-01 3.7704097969272703e+00 3.7704098015608616e+00 5.7818781704800681e+00 0 0 0
961 2 9.0329020691647466e-01 1.7589428147983395e+00 1.7589428201423478e+00 5.7818773684338707e+00 0 0 0
1217 2 9.0328750660926105e-01 5.7818780553032658e+00 5.7818780592210928e+00 5.7818780462548078e+00 0 0 0
1281 2 9.0328885113869894e-01 5.7818781795355445e+00 3.7704098015536109e+00 3.7704097862151387e+00 0 0 0
1473 2 9.0329020744613664e-01 5.7818773774854950e+00 1.7589428201389545e+00 1.7589428024277709e+00 0 0 0
1665 3 -5.6135938044209444e-01 5.8942530360413476e+00 1.8713187012981443e+00 3.6580355509232731e+00 0 0 0
1793 3 -5.6135835540066548e-01 3.8827861212355850e+00 1.6465680076323916e+00 1.6465679897874272e+00 0 0 0
1857 3 -5.6135835983306692e-01 1.6465680022425904e+00 3.8827861258250045e+00 1.6465679897902414e+00 0 0 0
1921 3 -5.6135835951158142e-01 1.6465680022419507e+00 1.6465680076344200e+00 3.8827861106119546e+00 0 0 0
1985 3 -5.6135964158252116e-01 3.8827858912652866e+00 3.8827858958581505e+00 3.8827858806422144e+00 0 0 0
2113 3 -5.6135938086738346e-01 1.8713186959892276e+00 3.6580355664123969e+00 5.8942530270626845e+00 0 0 0
2305 3 -5.6136060428347923e-01 3.8827859427750964e+00 5.6695026687625161e+00 5.6695026556286754e+00 0 0 0
2561 3 -5.6135937960323457e-01 3.6580355617372544e+00 1.8713187012956387e+00 5.8942530270633586e+00 0 0 0
2881 3 -5.6136060243778418e-01 5.6695026647982099e+00 3.8827859473677644e+00 5.6695026556276238e+00 0 0 0
3073 3 -5.6135938513218986e-01 3.6580355617458133e+00 5.8942530399232638e+00 1.8713186837234408e+00 0 0 0
3137 3 -5.6135938336692703e-01 5.8942530360480090e+00 3.6580355664199766e+00 1.8713186837203428e+00 0 0 0
3201 3 -5.6135938414095665e-01 1.8713186959932782e+00 5.8942530399182838e+00 3.6580355509252880e+00 0 0 0
3457 3 -5.6136060837320290e-01 5.6695026648052345e+00 5.6695026687675449e+00 3.8827859321464904e+00 0 0 0
81 1 4.3886373144160895e-01 1.0810545676728859e+01 2.7646764302657032e+00 2.7646764137506752e+00 0 0 0
209 1 4.3886281813827988e-01 1.0810545678326724e+01 6.7876117512684075e+00 6.7876117394840856e+00 0 0 0
401 1 4.3886292321034753e-01 8.7990789120224555e+00 4.7761442077703169e+00 4.7761441936192917e+00 0 0 0
593 2 9.0328849830317459e-01 1.1816279323255824e+01 5.7818780594627395e+00 3.7704099096538939e+00 0 0 0
721 2 9.0328935944454014e-01 9.8048122255398731e+00 5.7818775441823940e+00 1.7589429672898205e+00 0 0 0
913 2 9.0328850965374252e-01 1.1816279323246189e+01 3.7704099249644791e+00 5.7818780465195614e+00 0 0 0
977 2 9.0328937724481440e-01 9.8048122255555779e+00 1.7589429849939286e+00 5.7818775312245014e+00 0 0 0
1345 2 9.0328969987574459e-01 7.7933455412947188e+00 1.7589430103297894e+00 3.7704103984159096e+00 0 0 0
1409 2 9.0328969363976230e-01 7.7933455412789012e+00 3.7704104137412990e+00 1.7589429926319691e+00 0 0 0
1537 3 -5.6135874148561415e-01 7.6809698115527478e+00 1.8713184602052768e+00 1.8713184426195169e+00 0 0 0
1809 3 -5.6135854602070190e-01 1.1928654992512644e+01 1.6465679735276120e+00 1.6465679556568356e+00 0 0 0
1873 3 -5.6135932608647787e-01 9.6924370158553312e+00 3.8827860789593434e+00 1.6465680375335023e+00 0 0 0
1937 3 -5.6135931551827278e-01 9.6924370158492366e+00 1.6465680553974573e+00 3.8827860637246774e+00 0 0 0
2001 3 -5.6136000318028456e-01 1.1928654762130121e+01 3.8827859329892842e+00 3.8827859177495521e+00 0 0 0
2049 3 -5.6136145490728540e-01 7.6809695254824328e+00 5.8942530868231202e+00 5.8942530739468042e+00 0 0 0
2129 3 -5.6136026040609022e-01 9.9171876809026998e+00 3.6580355524370645e+00 5.8942530423416066e+00 0 0 0
2321 3 -5.6136087259180556e-01 1.1928654811259195e+01 5.6695026318726685e+00 5.6695026187167565e+00 0 0 0
2577 3 -5.6135976837234736e-01 1.1703904567298231e+01 1.8713187038095065e+00 5.8942530272221276e+00 0 0 0
2817 3 -5.6135994994372207e-01 7.9057203244241796e+00 1.6465680327577363e+00 5.6695025053776691e+00 0 0 0
3089 3 -5.6135978702429945e-01 1.1703904567296391e+01 5.8942530400937896e+00 1.8713186862228952e+00 0 0 0
3217 3 -5.6136027602067706e-01 9.9171876809061494e+00 5.8942530552201751e+00 3.6580355369286437e+00 0 0 0
3265 3 -5.6135982289523967e-01 7.6809695430317806e+00 3.6580355394236075e+00 3.6580355239188238e+00 0 0 0
3329 3 -5.6135996458237059e-01 7.9057203244388523e+00 5.6695025185197832e+00 1.6465680149046020e+00 0 0 0
97 1 4.3886367162206485e-01 1.8856413442461218e+01 2.7646764363536063e+00 2.7646764198234459e+00 0 0 0
225 1 4.3886272187637210e-01 1.8856413446753987e+01 6.7876117574282278e+00 6.7876117456159601e+00 0 0 0
337 1 4.3886318009634623e-01 1.4833480917216551e+01 2.7646764334517497e+00 6.7876117432088057e+00 0 0 0
417 1 4.3886292130269855e-01 1.6844948557243384e+01 4.7761442126270222e+00 4.7761441984617967e+00 0 0 0
465 1 4.3886317758158977e-01 1.4833480917229002e+01 6.7876117550091237e+00 2.7646764169287037e+00 0 0 0
609 2 9.0328857378677663e-01 1.9862148456640867e+01 5.7818783055206984e+00 3.7704096882356759e+00 0 0 0
737 2 9.0328924606170291e-01 1.7850680880886724e+01 5.7818775344554236e+00 1.7589429548619866e+00 0 0 0
929 2 9.0328856257035850e-01 1.9862148456630116e+01 3.7704097035952358e+00 5.7818782925159766e+00 0 0 0
993 2 9.0328923513432191e-01 1.7850680880857343e+01 1.7589429725649928e+00 5.7818775214588696e+00 0 0 0
1233 2 9.0328772247540945e-01 1.3827747266638493e+01 5.7818782415864023e+00 5.7818782286314123e+00 0 0 0
1297 2 9.0328897643308537e-01 1.3827747381120927e+01 3.7704096252718071e+00 3.7704096099537900e+00 0 0 0
1361 2 9.0328982764626931e-01 1.5839214336905847e+01 1.7589428414645647e+00 3.7704105775770231e+00 0 0 0
1425 2 9.0328982716546580e-01 1.5839214336915282e+01 3.7704105929074223e+00 1.7589428237741436e+00 0 0 0
1489 2 9.0329045195021529e-01 1.3827746569741866e+01 1.7589429945164194e+00 1.7589429768331650e+00 0 0 0
1553 3 -5.6135845558514608e-01 1.5726838988458677e+01 1.8713184328685410e+00 1.8713184152783648e+00 0 0 0
1681 3 -5.6135931009598894e-01 1.3940121794624627e+01 1.8713188018607450e+00 3.6580354509961017e+00 0 0 0
1825 3 -5.6135839663833642e-01 1.9974524156709833e+01 1.6465680731422261e+00 1.6465680552904720e+00 0 0 0
1889 3 -5.6135947941228703e-01 1.7738305712163015e+01 3.8827859764431580e+00 1.6465681264376681e+00 0 0 0
1953 3 -5.6135948437709027e-01 1.7738305712171901e+01 1.6465681442958631e+00 3.8827859612256690e+00 0 0 0
2017 3 -5.6135965747919292e-01 1.9974523928795286e+01 3.8827858183259383e+00 3.8827858031168092e+00 0 0 0
2065 3 -5.6136114259246905e-01 1.5726838688604325e+01 5.8942530563205766e+00 5.8942530434562190e+00 0 0 0
2145 3 -5.6136043292016469e-01 1.7963056924811731e+01 3.6580354665835690e+00 5.8942531138463545e+00 0 0 0
2337 3 -5.6136058579226067e-01 1.9974523979004605e+01 5.6695027305929573e+00 5.6695027174744608e+00 0 0 0
2593 3 -5.6135983466758754e-01 1.9749773666023792e+01 1.8713187551540629e+00 5.8942530771036834e+00 0 0 0
2833 3 -5.6135997693711459e-01 1.5951589564135359e+01 1.6465680768984545e+00 5.6695025464622981e+00 0 0 0
2897 3 -5.6136046954890639e-01 1.3715371668998571e+01 3.8827858456302664e+00 5.6695027537619085e+00 0 0 0
3105 3 -5.6135981489012210e-01 1.9749773666010885e+01 5.8942530899457797e+00 1.8713187375782570e+00 0 0 0
3153 3 -5.6135931458726707e-01 1.3940121794620753e+01 3.6580354665038088e+00 1.8713187842677521e+00 0 0 0
3233 3 -5.6136042374650541e-01 1.7963056924801034e+01 5.8942531266975022e+00 3.6580354510919482e+00 0 0 0
3281 3 -5.6135957404703951e-01 1.5726838712915987e+01 3.6580355611668778e+00 3.6580355456642457e+00 0 0 0
3345 3 -5.6135997571205964e-01 1.5951589564119804e+01 5.6695025595953350e+00 1.6465680590376379e+00 0 0 0
3473 3 -5.6136047572946468e-01 1.3715371668991596e+01 5.6695027669097859e+00 3.8827858303963416e+00 0 0 0
353 1 4.3886352590777600e-01 2.2879351085390677e+01 2.7646764348032669e+00 6.7876117469766477e+00 0 0 0
433 1 4.3886317455430668e-01 2.4890817346024654e+01 4.7761442127042883e+00 4.7761441985231157e+00 0 0 0
481 1 4.3886353649196780e-01 2.2879351085392152e+01 6.7876117587971008e+00 2.7646764182677304e+00 0 0 0
753 2 9.0328936121860948e-01 2.5896550156196387e+01 5.7818776580275753e+00 1.7589430687402205e+00 0 0 0
1009 2 9.0328935111556830e-01 2.5896550156202810e+01 1.7589430864520059e+00 5.7818776450221954e+00 0 0 0
1249 2 9.0328834741086861e-01 2.1873616377310196e+01 5.7818781962165389e+00 5.7818781832037729e+00 0 0 0
1313 2 9.0328965107971504e-01 2.1873616500143321e+01 3.7704096922351900e+00 3.7704096768694293e+00 0 0 0
1377 2 9.0329066851528028e-01 2.3885083837725940e+01 1.7589427710710919e+00 3.7704106459118929e+00 0 0 0
1441 2 9.0329067572841570e-01 2.3885083837727031e+01 3.7704106612799722e+00 1.7589427533506063e+00 0 0 0
1505 2 9.0329098520804940e-01 2.1873615705061450e+01 1.7589429455375496e+00 1.7589429278190922e+00 0 0 0
1569 3 -5.6135763062985300e-01 2.3772708057000383e+01 1.8713184905222853e+00 1.8713184729515624e+00 0 0 0
1697 3 -5.6135842160368854e-01 2.1985990610843427e+01 1.8713187650706915e+00 3.6580354780013820e+00 0 0 0
1905 3 -5.6135921290438195e-01 2.5784174829692240e+01 3.8827858896791985e+00 1.6465682262153993e+00 0 0 0
1969 3 -5.6135921871740369e-01 2.5784174829690510e+01 1.6465682440637390e+00 3.8827858744741204e+00 0 0 0
2081 3 -5.6136027591623405e-01 2.3772707779154377e+01 5.8942531090744250e+00 5.8942530962395479e+00 0 0 0
2161 3 -5.6136058335734251e-01 2.6008926038928767e+01 3.6580353974877511e+00 5.8942531887785465e+00 0 0 0
2849 3 -5.6135921616474049e-01 2.3997458703601932e+01 1.6465680704532106e+00 5.6695025352151784e+00 0 0 0
2913 3 -5.6135985972979918e-01 2.1761240621894405e+01 3.8827858595511078e+00 5.6695027275320209e+00 0 0 0
3169 3 -5.6135841379090567e-01 2.1985990610840950e+01 3.6580354934820125e+00 1.8713187474983599e+00 0 0 0
3249 3 -5.6136057375589088e-01 2.6008926038932380e+01 5.8942532016177562e+00 3.6580353820057128e+00 0 0 0
3297 3 -5.6135868640996367e-01 2.3772707792804226e+01 3.6580355038158374e+00 3.6580354883371018e+00 0 0 0
3361 3 -5.6135919954286118e-01 2.3997458703602870e+01 5.6695025483305610e+00 1.6465680526037352e+00 0 0 0
3489 3 -5.6135984830452790e-01 2.1761240621891574e+01 5.6695027406456964e+00 3.8827858443458880e+00 0 0 0
385 1 4.3886328689896276e-01 3.2936684867659743e+01 4.7761442081012637e+00 4.7761441939295368e+00 -1 0 0
113 1 4.3886346440420670e-01 2.6902283058030370e+01 2.7646764288127312e+00 2.7646764122758691e+00 0 0 0
241 1 4.3886254708564076e-01 2.6902283050279099e+01 6.7876117559953588e+00 6.7876117441757087e+00 0 0 0
369 1 4.3886309046212463e-01 3.0925219777516865e+01 2.7646764284436598e+00 6.7876117428520546e+00 0 0 0
497 1 4.3886308928241829e-01 3.0925219777513888e+01 6.7876117546604480e+00 2.7646764119100449e+00 0 0 0
625 2 9.0328752825828462e-01 2.7908017166620930e+01 5.7818783828345843e+00 3.7704095901805768e+00 0 0 0
945 2 9.0328752425055869e-01 2.7908017166629129e+01 3.7704096055428575e+00 5.7818783698290925e+00 0 0 0
1265 2 9.0328699957906156e-01 2.9919484801322458e+01 5.7818778306822391e+00 5.7818778176841485e+00 0 0 0
1329 2 9.0328829223568119e-01 2.9919484926596894e+01 3.7704100294189855e+00 3.7704100140593835e+00 0 0 0
1393 2 9.0329027688640307e-01 3.1930952129702288e+01 1.7589431908929345e+00 3.7704102096782495e+00 0 0 0
1457 2 9.0329027630987124e-01 3.1930952129704810e+01 3.7704102250357678e+00 1.7589431731703851e+00 0 0 0
1521 2 9.0328974047590971e-01 2.9919484118949917e+01 1.7589425744229430e+00 1.7589425567038972e+00 0 0 0
1585 3 -5.6135838169716523e-01 3.1818576579323096e+01 1.8713185206126353e+00 1.8713185030428718e+00 0 0 0
1713 3 -5.6135963082697116e-01 3.0031859881308609e+01 1.8713185083688539e+00 3.6580357537887043e+00 0 0 0
1841 3 -5.6135958796895191e-01 2.8020393270668610e+01 1.6465681103089760e+00 1.6465680924609269e+00 0 0 0
2033 3 -5.6136100447954695e-01 2.8020393045718546e+01 3.8827858013390482e+00 3.8827857861324935e+00 0 0 0
2097 3 -5.6136111387614573e-01 3.1818576286447488e+01 5.8942531411372201e+00 5.8942531282867012e+00 0 0 0
2353 3 -5.6136189462100228e-01 2.8020393100522433e+01 5.6695027615485341e+00 5.6695027484314764e+00 0 0 0
2609 3 -5.6136086541531305e-01 2.7795642844084682e+01 1.8713187620850211e+00 5.8942530780485738e+00 0 0 0
2865 3 -5.6135925784920260e-01 3.2043327300477578e+01 1.6465680586924965e+00 5.6695025254526081e+00 0 0 0
2929 3 -5.6136139866302825e-01 2.9807109743256785e+01 3.8827860316712632e+00 5.6695025714083682e+00 0 0 0
3121 3 -5.6136086113330330e-01 2.7795642844089880e+01 5.8942530908950559e+00 1.8713187445085542e+00 0 0 0
3185 3 -5.6135963128065458e-01 3.0031859881308296e+01 3.6580357692732157e+00 1.8713184907964620e+00 0 0 0
3313 3 -5.6135947878357584e-01 3.1818576305419516e+01 3.6580354851777468e+00 3.6580354696933153e+00 0 0 0
3377 3 -5.6135926117805135e-01 3.2043327300478495e+01 5.6695025385812796e+00 1.6465680408448582e+00 0 0 0
3505 3 -5.6136139802850626e-01 2.9807109743259563e+01 5.6695025845307905e+00 3.8827860164616466e+00 0 0 0
5 1 4.3886292059506776e-01 4.7761442034935424e+00 8.7990789148734709e+00 4.7761441936139137e+00 0 0 0
69 1 4.3886372897673059e-01 2.7646764252759031e+00 1.0810545678864617e+01 2.7646764137430271e+00 0 0 0
325 1 4.3886281407506034e-01 6.7876117477085360e+00 1.0810545680468367e+01 6.7876117394795088e+00 0 0 0
513 2 9.0328969689573013e-01 1.7589430049763184e+00 7.7933455445049145e+00 3.7704103984094823e+00 0 0 0
641 2 9.0328969291391037e-01 3.7704104091063741e+00 7.7933455444961011e+00 1.7589429926191771e+00 0 0 0
901 2 9.0328849819059021e-01 3.7704099203357035e+00 1.1816279325028384e+01 5.7818780465106059e+00 0 0 0
965 2 9.0328937309884161e-01 1.7589429796323675e+00 9.8048122280428647e+00 5.7818775312171509e+00 0 0 0
1285 2 9.0328849414912726e-01 5.7818780555559162e+00 1.1816279325041753e+01 3.7704099096364461e+00 0 0 0
1477 2 9.0328936169749219e-01 5.7818775402601634e+00 9.8048122280448595e+00 1.7589429672738399e+00 0 0 0
1601 3 -5.6135874417912035e-01 1.8713184549005624e+00 7.6809698147988064e+00 1.8713184426257925e+00 0 0 0
1669 3 -5.6136027889383178e-01 5.8942530513375901e+00 9.9171876833573869e+00 3.6580355369375481e+00 0 0 0
1729 3 -5.6135982646786764e-01 3.6580355347484619e+00 7.6809695462807932e+00 3.6580355239244504e+00 0 0 0
1797 3 -5.6135932568619007e-01 3.8827860743648843e+00 9.6924370183899864e+00 1.6465680375446559e+00 0 0 0
1861 3 -5.6135855215110309e-01 1.6465679681362650e+00 1.1928654994262047e+01 1.6465679556658055e+00 0 0 0
1925 3 -5.6135931943280948e-01 1.6465680500136997e+00 9.6924370183889454e+00 3.8827860637305016e+00 0 0 0
1989 3 -5.6136001269967006e-01 3.8827859283903288e+00 1.1928654763873384e+01 3.8827859177583375e+00 0 0 0
2117 3 -5.6135977648384039e-01 1.8713186985091206e+00 1.1703904569127367e+01 5.8942530272251306e+00 0 0 0
2369 3 -5.6135995184410314e-01 1.6465680273757282e+00 7.9057203275925145e+00 5.6695025053799100e+00 0 0 0
2565 3 -5.6136027009838163e-01 3.6580355477624877e+00 9.9171876833595718e+00 5.8942530423473647e+00 0 0 0
2625 3 -5.6136145848882457e-01 5.8942530829406277e+00 7.6809695287351323e+00 5.8942530739500993e+00 0 0 0
2885 3 -5.6136088242312321e-01 5.6695026279012843e+00 1.1928654812995454e+01 5.6695026187235777e+00 0 0 0
3141 3 -5.6135978380994456e-01 5.8942530362079033e+00 1.1703904569116732e+01 1.8713186862351359e+00 0 0 0
3393 3 -5.6135996355715134e-01 5.6695025145607447e+00 7.9057203275984893e+00 1.6465680149101545e+00 0 0 0
21 1 4.3886302906136193e-01 1.2822013528681371e+01 8.7990789159284084e+00 4.7761441936488431e+00 0 0 0
85 1 4.3886359923138418e-01 1.0810545678125642e+01 1.0810545680275487e+01 2.7646764129336243e+00 0 0 0
405 1 4.3886303048291248e-01 8.7990789130782758e+00 1.2822013530117506e+01 4.7761441936440194e+00 0 0 0
529 2 9.0328891619588836e-01 9.8048124146203754e+00 7.7933453778823463e+00 3.7704102329865954e+00 0 0 0
657 2 9.0328955696155666e-01 1.1816279939599234e+01 7.7933456716522063e+00 1.7589428641464215e+00 0 0 0
917 2 9.0328863781741286e-01 1.1816279451312875e+01 1.1816279453114017e+01 5.7818779204301123e+00 0 0 0
981 2 9.0328875510929263e-01 9.8048123910402829e+00 9.8048123935410363e+00 5.7818776944426702e+00 0 0 0
1153 2 9.0328791909651440e-01 7.7933454721398263e+00 7.7933454753450482e+00 5.7818776197343764e+00 0 0 0
1349 2 9.0328891587758597e-01 7.7933453746712997e+00 9.8048124171266444e+00 3.7704102329776266e+00 0 0 0
1413 2 9.0328956424967344e-01 7.7933456684444620e+00 1.1816279941400044e+01 1.7589428641314182e+00 0 0 0
1541 3 -5.6135952126777944e-01 7.6809697979563767e+00 9.9171874385093037e+00 1.8713184570753723e+00 0 0 0
1617 3 -5.6135952453850346e-01 9.9171874360660190e+00 7.6809698012012815e+00 1.8713184570696841e+00 0 0 0
1745 3 -5.6136014599256179e-01 1.1703904538708729e+01 7.6809695448349871e+00 3.6580355244792853e+00 0 0 0
1813 3 -5.6135921890810070e-01 1.1928654941153763e+01 9.6924369808094806e+00 1.6465680029891643e+00 0 0 0
1877 3 -5.6135921097601027e-01 9.6924369782827497e+00 1.1928654942879204e+01 1.6465680029924186e+00 0 0 0
1941 3 -5.6136010523489310e-01 9.6924370633100168e+00 9.6924370658398100e+00 3.8827860162747019e+00 0 0 0
2005 3 -5.6135981223535580e-01 1.1928654796989374e+01 1.1928654798714756e+01 3.8827859551528552e+00 0 0 0
2133 3 -5.6136031114624863e-01 9.9171876803420016e+00 1.1703904551472716e+01 5.8942530430036557e+00 0 0 0
2385 3 -5.6136078712483695e-01 9.6924370427992592e+00 7.9057202810724121e+00 5.6695025538300499e+00 0 0 0
2581 3 -5.6136031135580555e-01 1.1703904549659036e+01 9.9171876827928820e+00 5.8942530430003952e+00 0 0 0
2821 3 -5.6136078988407512e-01 7.9057202779035594e+00 9.6924370453337190e+00 5.6695025538334898e+00 0 0 0
3269 3 -5.6136014456950589e-01 7.6809695415814865e+00 1.1703904540523977e+01 3.6580355244877825e+00 0 0 0
3521 3 -5.6136058030798575e-01 7.9057202472642301e+00 7.9057202504284296e+00 3.8827860055623784e+00 0 0 0
101 1 4.3886345842310104e-01 1.8856413445291381e+01 1.0810545673586120e+01 2.7646764187399375e+00 0 0 0
341 1 4.3886305996125397e-01 1.4833480921967608e+01 1.0810545678640162e+01 6.7876117422199229e+00 0 0 0
421 1 4.3886303531998644e-01 1.6844948556074122e+01 1.2822013517423331e+01 4.7761441996111200e+00 0 0 0
545 2 9.0328879968318199e-01 1.7850681073110941e+01 7.7933454095673156e+00 3.7704102682202976e+00 0 0 0
673 2 9.0328948256444785e-01 1.9862149074743996e+01 7.7933454463896972e+00 1.7589431074087358e+00 0 0 0
933 2 9.0328834721611317e-01 1.9862148582853344e+01 1.1816279195279437e+01 5.7818781693294667e+00 0 0 0
997 2 9.0328853174888002e-01 1.7850681055270471e+01 9.8048123679133212e+00 5.7818776849497882e+00 0 0 0
1169 2 9.0328813042370182e-01 1.5839214288102310e+01 7.7933456553314713e+00 5.7818774535091366e+00 0 0 0
1301 2 9.0328908931159924e-01 1.3827747260339333e+01 1.1816279142514849e+01 3.7704097327585449e+00 0 0 0
1365 2 9.0328920845543437e-01 1.5839214184948407e+01 9.8048122411823417e+00 3.7704104135027707e+00 0 0 0
1429 2 9.0328988770520646e-01 1.5839214465338635e+01 1.1816280100273564e+01 1.7589426958657866e+00 0 0 0
1493 2 9.0328989494617939e-01 1.3827746746101091e+01 9.8048124061182484e+00 1.7589431441734604e+00 0 0 0
1557 3 -5.6135904384352919e-01 1.5726838966500186e+01 9.9171874150025996e+00 1.8713184287741231e+00 0 0 0
1633 3 -5.6135972686682378e-01 1.7963056680670249e+01 7.6809697172141282e+00 1.8713185299599551e+00 0 0 0
1685 3 -5.6135986976434160e-01 1.3940121801966738e+01 9.9171877829539614e+00 3.6580354367438752e+00 0 0 0
1761 3 -5.6136021477084652e-01 1.9749773638486840e+01 7.6809694813784413e+00 3.6580354590502639e+00 0 0 0
1829 3 -5.6135919036595749e-01 1.9974524106708362e+01 9.6924370900089087e+00 1.6465681034802426e+00 0 0 0
1893 3 -5.6135947679392106e-01 1.7738305674224403e+01 1.1928654861164079e+01 1.6465680930060520e+00 0 0 0
1957 3 -5.6136027840972846e-01 1.7738305754143852e+01 9.6924371630996298e+00 3.8827859132150979e+00 0 0 0
2021 3 -5.6135984695148256e-01 1.9974523962828176e+01 1.1928654706982970e+01 3.8827858397669339e+00 0 0 0
2149 3 -5.6136066330661527e-01 1.7963056922598195e+01 1.1703904485030614e+01 5.8942531135705671e+00 0 0 0
2401 3 -5.6136096614108211e-01 1.7738305731414592e+01 7.9057201807579602e+00 5.6695026418583154e+00 0 0 0
2597 3 -5.6136060177505387e-01 1.9749773649759938e+01 9.9171877443266645e+00 5.8942530919291780e+00 0 0 0
2641 3 -5.6136121270986461e-01 1.3940121830538363e+01 7.6809694267570219e+00 5.8942531711564277e+00 0 0 0
2837 3 -5.6136071968811108e-01 1.5951589508089411e+01 9.6924370927915398e+00 5.6695025958356702e+00 0 0 0
2901 3 -5.6136027692934620e-01 1.3715371630630045e+01 1.1928654714882088e+01 5.6695027177996717e+00 0 0 0
3157 3 -5.6135926680199544e-01 1.3940121792369801e+01 1.1703904472551715e+01 1.8713187858959610e+00 0 0 0
3285 3 -5.6135964200197919e-01 1.5726838710156677e+01 1.1703904574020132e+01 3.6580355460629783e+00 0 0 0
3409 3 -5.6135957389091939e-01 1.3715371519013656e+01 7.9057202243765543e+00 1.6465681165931492e+00 0 0 0
3537 3 -5.6136053487806403e-01 1.5951589480632618e+01 7.9057201996200446e+00 3.8827859541486549e+00 0 0 0
37 1 4.3886311637730313e-01 2.0867882245444903e+01 8.7990789177292523e+00 4.7761442000421894e+00 0 0 0
357 1 4.3886332124264066e-01 2.2879351084107519e+01 1.0810545674988619e+01 6.7876117470640622e+00 0 0 0
437 1 4.3886327749349480e-01 2.4890817347552783e+01 1.2822013515853046e+01 4.7761441979819041e+00 0 0 0
561 2 9.0328892880722977e-01 2.5896550335786081e+01 7.7933452862140529e+00 3.7704101346106986e+00 0 0 0
1013 2 9.0328873306148882e-01 2.5896550309964390e+01 9.8048124982717919e+00 5.7818778082316520e+00 0 0 0
1185 2 9.0328895327703274e-01 2.3885083756516572e+01 7.7933457258280443e+00 5.7818773933811558e+00 0 0 0
1317 2 9.0328943545671758e-01 2.1873616379488414e+01 1.1816279182241772e+01 3.7704097977521362e+00 0 0 0
1381 2 9.0328998608969968e-01 2.3885083662299014e+01 9.8048121770425460e+00 3.7704104790222921e+00 0 0 0
1445 2 9.0329061414805811e-01 2.3885083961448494e+01 1.1816280159783236e+01 1.7589426267767414e+00 0 0 0
1509 2 9.0329029509363801e-01 2.1873615866350931e+01 9.8048123469463135e+00 1.7589430933513297e+00 0 0 0
1573 3 -5.6135828588760261e-01 2.3772708048546694e+01 9.9171874705732286e+00 1.8713184867071575e+00 0 0 0
1649 3 -5.6135981808210444e-01 2.6008925793396635e+01 7.6809696412969348e+00 1.8713186113568454e+00 0 0 0
1701 3 -5.6135916971838384e-01 2.1985990626899817e+01 9.9171877518782665e+00 3.6580354650529974e+00 0 0 0
1909 3 -5.6135911490416646e-01 2.5784174795476108e+01 1.1928654767334878e+01 1.6465681921504685e+00 0 0 0
1973 3 -5.6135996149094802e-01 2.5784174885476762e+01 9.6924372517573634e+00 3.8827858262916832e+00 0 0 0
2165 3 -5.6136067331435580e-01 2.6008926040969001e+01 1.1703904407676067e+01 5.8942531889290173e+00 0 0 0
2417 3 -5.6136065402680191e-01 2.5784174866941427e+01 7.9057200876414386e+00 5.6695027349087841e+00 0 0 0
2657 3 -5.6136040975626045e-01 2.1985990660157302e+01 7.6809694545491167e+00 5.8942531309227428e+00 0 0 0
2853 3 -5.6136000162717237e-01 2.3997458661505945e+01 9.6924370832924218e+00 5.6695025844615721e+00 0 0 0
2917 3 -5.6136003812580271e-01 2.1761240584659269e+01 1.1928654746400781e+01 5.6695026915810356e+00 0 0 0
3173 3 -5.6135866931904144e-01 2.1985990609510978e+01 1.1703904515188194e+01 1.8713187492025671e+00 0 0 0
3301 3 -5.6135891916105474e-01 2.3772707793249545e+01 1.1703904521520693e+01 3.6580354900500462e+00 0 0 0
3425 3 -5.6135913254489178e-01 2.1761240469459256e+01 7.9057202396756470e+00 1.6465680931844098e+00 0 0 0
3553 3 -5.6135977450595975e-01 2.3997458629921361e+01 7.9057202052808400e+00 3.8827859625004488e+00 0 0 0
389 1 4.3886331569027248e-01 3.2936684865233929e+01 1.2822013525014686e+01 4.7761441942012954e+00 -1 0 0
53 1 4.3886257924320604e-01 2.8913750343153279e+01 8.7990789188455327e+00 4.7761441938966298e+00 0 0 0
117 1 4.3886332452254206e-01 2.6902283053720058e+01 1.0810545677473803e+01 2.7646764117538063e+00 0 0 0
373 1 4.3886292079460670e-01 3.0925219775338146e+01 1.0810545679861573e+01 6.7876117419846711e+00 0 0 0
689 2 9.0328857136418184e-01 2.7908017784108935e+01 7.7933453627798235e+00 1.7589431743048829e+00 0 0 0
949 2 9.0328756057550963e-01 2.7908017287091848e+01 1.1816279124312295e+01 5.7818782454289908e+00 0 0 0
1201 2 9.0328848715638210e-01 3.1930952065327130e+01 7.7933452939045171e+00 5.7818778083355564e+00 0 0 0
1333 2 9.0328824534144148e-01 2.9919484797059145e+01 1.1816279551930371e+01 3.7704101387650177e+00 0 0 0
1397 2 9.0328951460310747e-01 3.1930951962768336e+01 9.8048126056711364e+00 3.7704100431059051e+00 0 0 0
1461 2 9.0329015368457677e-01 3.1930952250756775e+01 1.1816279748257251e+01 1.7589430457242778e+00 0 0 0
1525 2 9.0328910616963431e-01 2.9919484280235373e+01 9.8048119972020853e+00 1.7589427235078996e+00 0 0 0
1589 3 -5.6135910881845130e-01 3.1818576565742294e+01 9.9171874944471714e+00 1.8713185166563178e+00 0 0 0
1717 3 -5.6136030974570539e-01 3.0031859898115716e+01 9.9171874821278241e+00 3.6580357395235712e+00 0 0 0
1777 3 -5.6136123239580626e-01 2.7795642820801234e+01 7.6809694851415271e+00 3.6580354707986089e+00 0 0 0
1845 3 -5.6136027630730223e-01 2.8020393228672749e+01 9.6924371118416985e+00 1.6465681403529262e+00 0 0 0
2037 3 -5.6136093739534187e-01 2.8020393084182103e+01 1.1928654672838563e+01 3.8827858223983873e+00 0 0 0
2613 3 -5.6136145984236474e-01 2.7795642836002177e+01 9.9171877364282004e+00 5.8942530934382553e+00 0 0 0
2673 3 -5.6136160603966900e-01 3.0031859928758603e+01 7.6809697232776317e+00 5.8942528717902576e+00 0 0 0
2869 3 -5.6136013552733033e-01 3.2043327253251007e+01 9.6924370661604211e+00 5.6695025748646488e+00 0 0 0
2933 3 -5.6136135292511513e-01 2.9807109709944154e+01 1.1928654899108640e+01 5.6695025352316462e+00 0 0 0
3189 3 -5.6135974681281309e-01 3.0031859884239186e+01 1.1703904772080021e+01 1.8713184924397828e+00 0 0 0
3317 3 -5.6135975189837151e-01 3.1818576307863903e+01 1.1703904487984071e+01 3.6580354701257125e+00 0 0 0
3441 3 -5.6136053756839643e-01 2.9807109595038664e+01 7.9057204045087524e+00 1.6465679399790156e+00 0 0 0
3569 3 -5.6135989741033454e-01 3.2043327221684187e+01 7.9057202253976637e+00 3.8827859850591122e+00 0 0 0
9 1 4.3886291899006313e-01 4.7761442083642951e+00 1.6844948557247328e+01 4.7761441984649231e+00 0 0 0
73 1 4.3886366696373347e-01 2.7646764313711580e+00 1.8856413441751478e+01 2.7646764198258045e+00 0 0 0
197 1 4.3886317491604709e-01 2.7646764284684173e+00 1.4833480917931240e+01 6.7876117432107774e+00 0 0 0
329 1 4.3886272753440309e-01 6.7876117538752183e+00 1.8856413446044900e+01 6.7876117456235718e+00 0 0 0
453 1 4.3886317943931658e-01 6.7876117514557350e+00 1.4833480917943920e+01 2.7646764169253508e+00 0 0 0
517 2 9.0328981251949514e-01 1.7589428361299475e+00 1.5839214337255886e+01 3.7704105775720316e+00 0 0 0
581 2 9.0328896539364301e-01 3.7704096206557915e+00 1.3827747382186764e+01 3.7704096099446702e+00 0 0 0
645 2 9.0328981779627759e-01 3.7704105882979455e+00 1.5839214337264188e+01 1.7589428237636839e+00 0 0 0
709 2 9.0329044127302660e-01 1.7589429891764528e+00 1.3827746570795188e+01 1.7589429768188729e+00 0 0 0
905 2 9.0328856390861201e-01 3.7704096989919873e+00 1.9862148455572793e+01 5.7818782925273702e+00 0 0 0
969 2 9.0328922423100022e-01 1.7589429672441665e+00 1.7850680880510001e+01 5.7818775214658205e+00 0 0 0
1221 2 9.0328771542636865e-01 5.7818782376883444e+00 1.3827747267724478e+01 5.7818782286273960e+00 0 0 0
1289 2 9.0328857451003586e-01 5.7818783016168318e+00 1.9862148455566338e+01 3.7704096882573856e+00 0 0 0
1481 2 9.0328924259877430e-01 5.7818775305585834e+00 1.7850680880518944e+01 1.7589429548721327e+00 0 0 0
1605 3 -5.6135847053980448e-01 1.8713184275552028e+00 1.5726838988862776e+01 1.8713184152844651e+00 0 0 0
1673 3 -5.6136042356610960e-01 5.8942531228008246e+00 1.7963056924403954e+01 3.6580354510838027e+00 0 0 0
1733 3 -5.6135958659461394e-01 3.6580355564759457e+00 1.5726838713314221e+01 3.6580355456663511e+00 0 0 0
1801 3 -5.6135949012089748e-01 3.8827859718370199e+00 1.7738305711852025e+01 1.6465681264360421e+00 0 0 0
1865 3 -5.6135840434200346e-01 1.6465680677518952e+00 1.9974524155592189e+01 1.6465680552884536e+00 0 0 0
1929 3 -5.6135949902408466e-01 1.6465681388968649e+00 1.7738305711853634e+01 3.8827859612262055e+00 0 0 0
1993 3 -5.6135965972789581e-01 3.8827858137208935e+00 1.9974523927680309e+01 3.8827858031082156e+00 0 0 0
2121 3 -5.6135984002421324e-01 1.8713187498300012e+00 1.9749773664987522e+01 5.8942530771011326e+00 0 0 0
2309 3 -5.6136048219987567e-01 3.8827858410272826e+00 1.3715371670106963e+01 5.6695027537640375e+00 0 0 0
2373 3 -5.6135999096837008e-01 1.6465680715008175e+00 1.5951589564452068e+01 5.6695025464601203e+00 0 0 0
2569 3 -5.6136043776238154e-01 3.6580354618874171e+00 1.7963056924406697e+01 5.8942531138400520e+00 0 0 0
2629 3 -5.6136114441501239e-01 5.8942530524229815e+00 1.5726838688991737e+01 5.8942530434550502e+00 0 0 0
2889 3 -5.6136057860128608e-01 5.6695027266156783e+00 1.9974523977892158e+01 5.6695027174620458e+00 0 0 0
3077 3 -5.6135932251653287e-01 3.6580354618163851e+00 1.3940121795654397e+01 1.8713187842780554e+00 0 0 0
3145 3 -5.6135982056364753e-01 5.8942530860572893e+00 1.9749773664991316e+01 1.8713187375654368e+00 0 0 0
3205 3 -5.6135932382971132e-01 1.8713187965515443e+00 1.3940121795659788e+01 3.6580354510012469e+00 0 0 0