# LAMMPS data file written by Ovito Basic 3.0.0-dev791
3584 atoms
3 atom types
0.0 33.6898956299 xlo xhi
0.0 33.6898956299 ylo yhi
0.0 33.6898956299 zlo zhi

Atoms  # charge

1 1 0.0 4.211236954 0.0 4.211236954
2 1 0.0 4.211236954 0.0 12.633710861
3 1 0.0 4.211236954 0.0 21.056184769
4 1 0.0 4.211236954 0.0 29.478658676
5 1 0.0 4.211236954 8.422473907 4.211236954
6 1 0.0 4.211236954 8.422473907 12.633710861
7 1 0.0 4.211236954 8.422473907 21.056184769
8 1 0.0 4.211236954 8.422473907 29.478658676
9 1 0.0 4.211236954 16.844947815 4.211236954
10 1 0.0 4.211236954 16.844947815 12.633710861
11 1 0.0 4.211236954 16.844947815 21.056184769
12 1 0.0 4.211236954 16.844947815 29.478658676
13 1 0.0 4.211236954 25.267421722 4.211236954
14 1 0.0 4.211236954 25.267421722 12.633710861
15 1 0.0 4.211236954 25.267421722 21.056184769
16 1 0.0 4.211236954 25.267421722 29.478658676
17 1 0.0 12.633710861 0.0 4.211236954
18 1 0.0 12.633710861 0.0 12.633710861
19 1 0.0 12.633710861 0.0 21.056184769
20 1 0.0 12.633710861 0.0 29.478658676
21 1 0.0 12.633710861 8.422473907 4.211236954
22 1 0.0 12.633710861 8.422473907 12.633710861
23 1 0.0 12.633710861 8.422473907 21.056184769
24 1 0.0 12.633710861 8.422473907 29.478658676
25 1 0.0 12.633710861 16.844947815 4.211236954
26 1 0.0 12.633710861 16.844947815 12.633710861
27 1 0.0 12.633710861 16.844947815 21.056184769
28 1 0.0 12.633710861 16.844947815 29.478658676
29 1 0.0 12.633710861 25.267421722 4.211236954
30 1 0.0 12.633710861 25.267421722 12.633710861
31 1 0.0 12.633710861 25.267421722 21.056184769
32 1 0.0 12.633710861 25.267421722 29.478658676
33 1 0.0 21.056184769 0.0 4.211236954
34 1 0.0 21.056184769 0.0 12.633710861
35 1 0.0 21.056184769 0.0 21.056184769
36 1 0.0 21.056184769 0.0 29.478658676
37 1 0.0 21.056184769 8.422473907 4.211236954
38 1 0.0 21.056184769 8.422473907 12.633710861
39 1 0.0 21.056184769 8.422473907 21.056184769
40 1 0.0 21.056184769 8.422473907 29.478658676
41 1 0.0 21.056184769 16.844947815 4.211236954
42 1 0.0 21.056184769 16.844947815 12.633710861
43 1 0.0 21.056184769 16.844947815 21.056184769
44 1 0.0 21.056184769 16.844947815 29.478658676
45 1 0.0 21.056184769 25.267421722 4.211236954
46 1 0.0 21.056184769 25.267421722 12.633710861
47 1 0.0 21.056184769 25.267421722 21.056184769
48 1 0.0 21.056184769 25.267421722 29.478658676
49 1 0.0 29.478658676 0.0 4.211236954
50 1 0.0 29.478658676 0.0 12.633710861
51 1 0.0 29.478658676 0.0 21.056184769
52 1 0.0 29.478658676 0.0 29.478658676
53 1 0.0 29.478658676 8.422473907 4.211236954
54 1 0.0 29.478658676 8.422473907 12.633710861
55 1 0.0 29.478658676 8.422473907 21.056184769
56 1 0.0 29.478658676 8.422473907 29.478658676
57 1 0.0 29.478658676 16.844947815 4.211236954
58 1 0.0 29.478658676 16.844947815 12.633710861
59 1 0.0 29.478658676 16.844947815 21.056184769
60 1 0.0 29.478658676 16.844947815 29.478658676
61 1 0.0 29.478658676 25.267421722 4.211236954
62 1 0.0 29.478658676 25.267421722 12.633710861
63 1 0.0 29.478658676 25.267421722 21.056184769
64 1 0.0 29.478658676 25.267421722 29.478658676
65 1 0.0 2.105618477 2.105618477 2.105618477
66 1 0.0 2.105618477 2.105618477 10.528092384
67 1 0.0 2.105618477 2.105618477 18.950565338
68 1 0.0 2.105618477 2.105618477 27.373039246
69 1 0.0 2.105618477 10.528092384 2.105618477
70 1 0.0 2.105618477 10.528092384 10.528092384
71 1 0.0 2.105618477 10.528092384 18.950565338
72 1 0.0 2.105618477 10.528092384 27.373039246
73 1 0.0 2.105618477 18.950565338 2.105618477
74 1 0.0 2.105618477 18.950565338 10.528092384
75 1 0.0 2.105618477 18.950565338 18.950565338
76 1 0.0 2.105618477 18.950565338 27.373039246
77 1 0.0 2.105618477 27.373039246 2.105618477
78 1 0.0 2.105618477 27.373039246 10.528092384
79 1 0.0 2.105618477 27.373039246 18.950565338
80 1 0.0 2.105618477 27.373039246 27.373039246
81 1 0.0 10.528092384 2.105618477 2.105618477
82 1 0.0 10.528092384 2.105618477 10.528092384
83 1 0.0 10.528092384 2.105618477 18.950565338
84 1 0.0 10.528092384 2.105618477 27.373039246
85 1 0.0 10.528092384 10.528092384 2.105618477
86 1 0.0 10.528092384 10.528092384 10.528092384
87 1 0.0 10.528092384 10.528092384 18.950565338
88 1 0.0 10.528092384 10.528092384 27.373039246
89 1 0.0 10.528092384 18.950565338 2.105618477
90 1 0.0 10.528092384 18.950565338 10.528092384
91 1 0.0 10.528092384 18.950565338 18.950565338
92 1 0.0 10.528092384 18.950565338 27.373039246
93 1 0.0 10.528092384 27.373039246 2.105618477
94 1 0.0 10.528092384 27.373039246 10.528092384
95 1 0.0 10.528092384 27.373039246 18.950565338
96 1 0.0 10.528092384 27.373039246 27.373039246
97 1 0.0 18.950565338 2.105618477 2.105618477
98 1 0.0 18.950565338 2.105618477 10.528092384
99 1 0.0 18.950565338 2.105618477 18.950565338
100 1 0.0 18.950565338 2.105618477 27.373039246
101 1 0.0 18.950565338 10.528092384 2.105618477
102 1 0.0 18.950565338 10.528092384 10.528092384
103 1 0.0 18.950565338 10.528092384 18.950565338
104 1 0.0 18.950565338 10.528092384 27.373039246
105 1 0.0 18.950565338 18.950565338 2.105618477
106 1 0.0 18.950565338 18.950565338 10.528092384
107 1 0.0 18.950565338 18.950565338 18.950565338
108 1 0.0 18.950565338 18.950565338 27.373039246
109 1 0.0 18.950565338 27.373039246 2.105618477
110 1 0.0 18.950565338 27.373039246 10.528092384
111 1 0.0 18.950565338 27.373039246 18.950565338
112 1 0.0 18.950565338 27.373039246 27.373039246
113 1 0.0 27.373039246 2.105618477 2.105618477
114 1 0.0 27.373039246 2.105618477 10.528092384
115 1 0.0 27.373039246 2.105618477 18.950565338
116 1 0.0 27.373039246 2.105618477 27.373039246
117 1 0.0 27.373039246 10.528092384 2.105618477
118 1 0.0 27.373039246 10.528092384 10.528092384
119 1 0.0 27.373039246 10.528092384 18.950565338
120 1 0.0 27.373039246 10.528092384 27.373039246
121 1 0.0 27.373039246 18.950565338 2.105618477
122 1 0.0 27.373039246 18.950565338 10.528092384
123 1 0.0 27.373039246 18.950565338 18.950565338
124 1 0.0 27.373039246 18.950565338 27.373039246
125 1 0.0 27.373039246 27.373039246 2.105618477
126 1 0.0 27.373039246 27.373039246 10.528092384
127 1 0.0 27.373039246 27.373039246 18.950565338
128 1 0.0 27.373039246 27.373039246 27.373039246
129 1 0.0 4.211236954 4.211236954 0.0
130 1 0.0 4.211236954 4.211236954 8.422473907
131 1 0.0 4.211236954 4.211236954 16.844947815
132 1 0.0 4.211236954 4.211236954 25.267421722
133 1 0.0 4.211236954 12.633710861 0.0
134 1 0.0 4.211236954 12.633710861 8.422473907
135 1 0.0 4.211236954 12.633710861 16.844947815
136 1 0.0 4.211236954 12.633710861 25.267421722
137 1 0.0 4.211236954 21.056184769 0.0
138 1 0.0 4.211236954 21.056184769 8.422473907
139 1 0.0 4.211236954 21.056184769 16.844947815
140 1 0.0 4.211236954 21.056184769 25.267421722
141 1 0.0 4.211236954 29.478658676 0.0
142 1 0.0 4.211236954 29.478658676 8.422473907
143 1 0.0 4.211236954 29.478658676 16.844947815
144 1 0.0 4.211236954 29.478658676 25.267421722
145 1 0.0 12.633710861 4.211236954 0.0
146 1 0.0 12.633710861 4.211236954 8.422473907
147 1 0.0 12.633710861 4.211236954 16.844947815
148 1 0.0 12.633710861 4.211236954 25.267421722
149 1 0.0 12.633710861 12.633710861 0.0
150 1 0.0 12.633710861 12.633710861 8.422473907
151 1 0.0 12.633710861 12.633710861 16.844947815
152 1 0.0 12.633710861 12.633710861 25.267421722
153 1 0.0 12.633710861 21.056184769 0.0
154 1 0.0 12.633710861 21.056184769 8.422473907
155 1 0.0 12.633710861 21.056184769 16.844947815
156 1 0.0 12.633710861 21.056184769 25.267421722
157 1 0.0 12.633710861 29.478658676 0.0
158 1 0.0 12.633710861 29.478658676 8.422473907
159 1 0.0 12.633710861 29.478658676 16.844947815
160 1 0.0 12.633710861 29.478658676 25.267421722
161 1 0.0 21.056184769 4.211236954 0.0
162 1 0.0 21.056184769 4.211236954 8.422473907
163 1 0.0 21.056184769 4.211236954 16.844947815
164 1 0.0 21.056184769 4.211236954 25.267421722
165 1 0.0 21.056184769 12.633710861 0.0
166 1 0.0 21.056184769 12.633710861 8.422473907
167 1 0.0 21.056184769 12.633710861 16.844947815
168 1 0.0 21.056184769 12.633710861 25.267421722
169 1 0.0 21.056184769 21.056184769 0.0
170 1 0.0 21.056184769 21.056184769 8.422473907
171 1 0.0 21.056184769 21.056184769 16.844947815
172 1 0.0 21.056184769 21.056184769 25.267421722
173 1 0.0 21.056184769 29.478658676 0.0
174 1 0.0 21.056184769 29.478658676 8.422473907
175 1 0.0 21.056184769 29.478658676 16.844947815
176 1 0.0 21.056184769 29.478658676 25.267421722
177 1 0.0 29.478658676 4.211236954 0.0
178 1 0.0 29.478658676 4.211236954 8.422473907
179 1 0.0 29.478658676 4.211236954 16.844947815
180 1 0.0 29.478658676 4.211236954 25.267421722
181 1 0.0 29.478658676 12.633710861 0.0
182 1 0.0 29.478658676 12.633710861 8.422473907
183 1 0.0 29.478658676 12.633710861 16.844947815
184 1 0.0 29.478658676 12.633710861 25.267421722
185 1 0.0 29.478658676 21.056184769 0.0
186 1 0.0 29.478658676 21.056184769 8.422473907
187 1 0.0 29.478658676 21.056184769 16.844947815
188 1 0.0 29.478658676 21.056184769 25.267421722
189 1 0.0 29.478658676 29.478658676 0.0
190 1 0.0 29.478658676 29.478658676 8.422473907
191 1 0.0 29.478658676 29.478658676 16.844947815
192 1 0.0 29.478658676 29.478658676 25.267421722
193 1 0.0 2.105618477 6.316855431 6.316855431
194 1 0.0 2.105618477 6.316855431 14.739329338
195 1 0.0 2.105618477 6.316855431 23.161804199
196 1 0.0 2.105618477 6.316855431 31.584278107
197 1 0.0 2.105618477 14.739329338 6.316855431
198 1 0.0 2.105618477 14.739329338 14.739329338
199 1 0.0 2.105618477 14.739329338 23.161804199
200 1 0.0 2.105618477 14.739329338 31.584278107
201 1 0.0 2.105618477 23.161804199 6.316855431
202 1 0.0 2.105618477 23.161804199 14.739329338
203 1 0.0 2.105618477 23.161804199 23.161804199
204 1 0.0 2.105618477 23.161804199 31.584278107
205 1 0.0 2.105618477 31.584278107 6.316855431
206 1 0.0 2.105618477 31.584278107 14.739329338
207 1 0.0 2.105618477 31.584278107 23.161804199
208 1 0.0 2.105618477 31.584278107 31.584278107
209 1 0.0 10.528092384 6.316855431 6.316855431
210 1 0.0 10.528092384 6.316855431 14.739329338
211 1 0.0 10.528092384 6.316855431 23.161804199
212 1 0.0 10.528092384 6.316855431 31.584278107
213 1 0.0 10.528092384 14.739329338 6.316855431
214 1 0.0 10.528092384 14.739329338 14.739329338
215 1 0.0 10.528092384 14.739329338 23.161804199
216 1 0.0 10.528092384 14.739329338 31.584278107
217 1 0.0 10.528092384 23.161804199 6.316855431
218 1 0.0 10.528092384 23.161804199 14.739329338
219 1 0.0 10.528092384 23.161804199 23.161804199
220 1 0.0 10.528092384 23.161804199 31.584278107
221 1 0.0 10.528092384 31.584278107 6.316855431
222 1 0.0 10.528092384 31.584278107 14.739329338
223 1 0.0 10.528092384 31.584278107 23.161804199
224 1 0.0 10.528092384 31.584278107 31.584278107
225 1 0.0 18.950565338 6.316855431 6.316855431
226 1 0.0 18.950565338 6.316855431 14.739329338
227 1 0.0 18.950565338 6.316855431 23.161804199
228 1 0.0 18.950565338 6.316855431 31.584278107
229 1 0.0 18.950565338 14.739329338 6.316855431
230 1 0.0 18.950565338 14.739329338 14.739329338
231 1 0.0 18.950565338 14.739329338 23.161804199
232 1 0.0 18.950565338 14.739329338 31.584278107
233 1 0.0 18.950565338 23.161804199 6.316855431
234 1 0.0 18.950565338 23.161804199 14.739329338
235 1 0.0 18.950565338 23.161804199 23.161804199
236 1 0.0 18.950565338 23.161804199 31.584278107
237 1 0.0 18.950565338 31.584278107 6.316855431
238 1 0.0 18.950565338 31.584278107 14.739329338
239 1 0.0 18.950565338 31.584278107 23.161804199
240 1 0.0 18.950565338 31.584278107 31.584278107
241 1 0.0 27.373039246 6.316855431 6.316855431
242 1 0.0 27.373039246 6.316855431 14.739329338
243 1 0.0 27.373039246 6.316855431 23.161804199
244 1 0.0 27.373039246 6.316855431 31.584278107
245 1 0.0 27.373039246 14.739329338 6.316855431
246 1 0.0 27.373039246 14.739329338 14.739329338
247 1 0.0 27.373039246 14.739329338 23.161804199
248 1 0.0 27.373039246 14.739329338 31.584278107
249 1 0.0 27.373039246 23.161804199 6.316855431
250 1 0.0 27.373039246 23.161804199 14.739329338
251 1 0.0 27.373039246 23.161804199 23.161804199
252 1 0.0 27.373039246 23.161804199 31.584278107
253 1 0.0 27.373039246 31.584278107 6.316855431
254 1 0.0 27.373039246 31.584278107 14.739329338
255 1 0.0 27.373039246 31.584278107 23.161804199
256 1 0.0 27.373039246 31.584278107 31.584278107
257 1 0.0 0.0 0.0 0.0
258 1 0.0 0.0 0.0 8.422473907
259 1 0.0 0.0 0.0 16.844947815
260 1 0.0 0.0 0.0 25.267421722
261 1 0.0 0.0 8.422473907 0.0
262 1 0.0 0.0 8.422473907 8.422473907
263 1 0.0 0.0 8.422473907 16.844947815
264 1 0.0 0.0 8.422473907 25.267421722
265 1 0.0 0.0 16.844947815 0.0
266 1 0.0 0.0 16.844947815 8.422473907
267 1 0.0 0.0 16.844947815 16.844947815
268 1 0.0 0.0 16.844947815 25.267421722
269 1 0.0 0.0 25.267421722 0.0
270 1 0.0 0.0 25.267421722 8.422473907
271 1 0.0 0.0 25.267421722 16.844947815
272 1 0.0 0.0 25.267421722 25.267421722
273 1 0.0 8.422473907 0.0 0.0
274 1 0.0 8.422473907 0.0 8.422473907
275 1 0.0 8.422473907 0.0 16.844947815
276 1 0.0 8.422473907 0.0 25.267421722
277 1 0.0 8.422473907 8.422473907 0.0
278 1 0.0 8.422473907 8.422473907 8.422473907
279 1 0.0 8.422473907 8.422473907 16.844947815
280 1 0.0 8.422473907 8.422473907 25.267421722
281 1 0.0 8.422473907 16.844947815 0.0
282 1 0.0 8.422473907 16.844947815 8.422473907
283 1 0.0 8.422473907 16.844947815 16.844947815
284 1 0.0 8.422473907 16.844947815 25.267421722
285 1 0.0 8.422473907 25.267421722 0.0
286 1 0.0 8.422473907 25.267421722 8.422473907
287 1 0.0 8.422473907 25.267421722 16.844947815
288 1 0.0 8.422473907 25.267421722 25.267421722
289 1 0.0 16.844947815 0.0 0.0
290 1 0.0 16.844947815 0.0 8.422473907
291 1 0.0 16.844947815 0.0 16.844947815
292 1 0.0 16.844947815 0.0 25.267421722
293 1 0.0 16.844947815 8.422473907 0.0
294 1 0.0 16.844947815 8.422473907 8.422473907
295 1 0.0 16.844947815 8.422473907 16.844947815
296 1 0.0 16.844947815 8.422473907 25.267421722
297 1 0.0 16.844947815 16.844947815 0.0
298 1 0.0 16.844947815 16.844947815 8.422473907
299 1 0.0 16.844947815 16.844947815 16.844947815
300 1 0.0 16.844947815 16.844947815 25.267421722
301 1 0.0 16.844947815 25.267421722 0.0
302 1 0.0 16.844947815 25.267421722 8.422473907
303 1 0.0 16.844947815 25.267421722 16.844947815
304 1 0.0 16.844947815 25.267421722 25.267421722
305 1 0.0 25.267421722 0.0 0.0
306 1 0.0 25.267421722 0.0 8.422473907
307 1 0.0 25.267421722 0.0 16.844947815
308 1 0.0 25.267421722 0.0 25.267421722
309 1 0.0 25.267421722 8.422473907 0.0
310 1 0.0 25.267421722 8.422473907 8.422473907
311 1 0.0 25.267421722 8.422473907 16.844947815
312 1 0.0 25.267421722 8.422473907 25.267421722
313 1 0.0 25.267421722 16.844947815 0.0
314 1 0.0 25.267421722 16.844947815 8.422473907
315 1 0.0 25.267421722 16.844947815 16.844947815
316 1 0.0 25.267421722 16.844947815 25.267421722
317 1 0.0 25.267421722 25.267421722 0.0
318 1 0.0 25.267421722 25.267421722 8.422473907
319 1 0.0 25.267421722 25.267421722 16.844947815
320 1 0.0 25.267421722 25.267421722 25.267421722
321 1 0.0 6.316855431 2.105618477 6.316855431
322 1 0.0 6.316855431 2.105618477 14.739329338
323 1 0.0 6.316855431 2.105618477 23.161804199
324 1 0.0 6.316855431 2.105618477 31.584278107
325 1 0.0 6.316855431 10.528092384 6.316855431
326 1 0.0 6.316855431 10.528092384 14.739329338
327 1 0.0 6.316855431 10.528092384 23.161804199
328 1 0.0 6.316855431 10.528092384 31.584278107
329 1 0.0 6.316855431 18.950565338 6.316855431
330 1 0.0 6.316855431 18.950565338 14.739329338
331 1 0.0 6.316855431 18.950565338 23.161804199
332 1 0.0 6.316855431 18.950565338 31.584278107
333 1 0.0 6.316855431 27.373039246 6.316855431
334 1 0.0 6.316855431 27.373039246 14.739329338
335 1 0.0 6.316855431 27.373039246 23.161804199
336 1 0.0 6.316855431 27.373039246 31.584278107
337 1 0.0 14.739329338 2.105618477 6.316855431
338 1 0.0 14.739329338 2.105618477 14.739329338
339 1 0.0 14.739329338 2.105618477 23.161804199
340 1 0.0 14.739329338 2.105618477 31.584278107
341 1 0.0 14.739329338 10.528092384 6.316855431
342 1 0.0 14.739329338 10.528092384 14.739329338
343 1 0.0 14.739329338 10.528092384 23.161804199
344 1 0.0 14.739329338 10.528092384 31.584278107
345 1 0.0 14.739329338 18.950565338 6.316855431
346 1 0.0 14.739329338 18.950565338 14.739329338
347 1 0.0 14.739329338 18.950565338 23.161804199
348 1 0.0 14.739329338 18.950565338 31.584278107
349 1 0.0 14.739329338 27.373039246 6.316855431
350 1 0.0 14.739329338 27.373039246 14.739329338
351 1 0.0 14.739329338 27.373039246 23.161804199
352 1 0.0 14.739329338 27.373039246 31.584278107
353 1 0.0 23.161804199 2.105618477 6.316855431
354 1 0.0 23.161804199 2.105618477 14.739329338
355 1 0.0 23.161804199 2.105618477 23.161804199
356 1 0.0 23.161804199 2.105618477 31.584278107
357 1 0.0 23.161804199 10.528092384 6.316855431
358 1 0.0 23.161804199 10.528092384 14.739329338
359 1 0.0 23.161804199 10.528092384 23.161804199
360 1 0.0 23.161804199 10.528092384 31.584278107
361 1 0.0 23.161804199 18.950565338 6.316855431
362 1 0.0 23.161804199 18.950565338 14.739329338
363 1 0.0 23.161804199 18.950565338 23.161804199
364 1 0.0 23.161804199 18.950565338 31.584278107
365 1 0.0 23.161804199 27.373039246 6.316855431
366 1 0.0 23.161804199 27.373039246 14.739329338
367 1 0.0 23.161804199 27.373039246 23.161804199
368 1 0.0 23.161804199 27.373039246 31.584278107
369 1 0.0 31.584278107 2.105618477 6.316855431
370 1 0.0 31.584278107 2.105618477 14.739329338
371 1 0.0 31.584278107 2.105618477 23.161804199
372 1 0.0 31.584278107 2.105618477 31.584278107
373 1 0.0 31.584278107 10.528092384 6.316855431
374 1 0.0 31.584278107 10.528092384 14.739329338
375 1 0.0 31.584278107 10.528092384 23.161804199
376 1 0.0 31.584278107 10.528092384 31.584278107
377 1 0.0 31.584278107 18.950565338 6.316855431
378 1 0.0 31.584278107 18.950565338 14.739329338
379 1 0.0 31.584278107 18.950565338 23.161804199
380 1 0.0 31.584278107 18.950565338 31.584278107
381 1 0.0 31.584278107 27.373039246 6.316855431
382 1 0.0 31.584278107 27.373039246 14.739329338
383 1 0.0 31.584278107 27.373039246 23.161804199
384 1 0.0 31.584278107 27.373039246 31.584278107
385 1 0.0 0.0 4.211236954 4.211236954
386 1 0.0 0.0 4.211236954 12.633710861
387 1 0.0 0.0 4.211236954 21.056184769
388 1 0.0 0.0 4.211236954 29.478658676
389 1 0.0 0.0 12.633710861 4.211236954
390 1 0.0 0.0 12.633710861 12.633710861
391 1 0.0 0.0 12.633710861 21.056184769
392 1 0.0 0.0 12.633710861 29.478658676
393 1 0.0 0.0 21.056184769 4.211236954
394 1 0.0 0.0 21.056184769 12.633710861
395 1 0.0 0.0 21.056184769 21.056184769
396 1 0.0 0.0 21.056184769 29.478658676
397 1 0.0 0.0 29.478658676 4.211236954
398 1 0.0 0.0 29.478658676 12.633710861
399 1 0.0 0.0 29.478658676 21.056184769
400 1 0.0 0.0 29.478658676 29.478658676
401 1 0.0 8.422473907 4.211236954 4.211236954
402 1 0.0 8.422473907 4.211236954 12.633710861
403 1 0.0 8.422473907 4.211236954 21.056184769
404 1 0.0 8.422473907 4.211236954 29.478658676
405 1 0.0 8.422473907 12.633710861 4.211236954
406 1 0.0 8.422473907 12.633710861 12.633710861
407 1 0.0 8.422473907 12.633710861 21.056184769
408 1 0.0 8.422473907 12.633710861 29.478658676
409 1 0.0 8.422473907 21.056184769 4.211236954
410 1 0.0 8.422473907 21.056184769 12.633710861
411 1 0.0 8.422473907 21.056184769 21.056184769
412 1 0.0 8.422473907 21.056184769 29.478658676
413 1 0.0 8.422473907 29.478658676 4.211236954
414 1 0.0 8.422473907 29.478658676 12.633710861
415 1 0.0 8.422473907 29.478658676 21.056184769
416 1 0.0 8.422473907 29.478658676 29.478658676
417 1 0.0 16.844947815 4.211236954 4.211236954
418 1 0.0 16.844947815 4.211236954 12.633710861
419 1 0.0 16.844947815 4.211236954 21.056184769
420 1 0.0 16.844947815 4.211236954 29.478658676
421 1 0.0 16.844947815 12.633710861 4.211236954
422 1 0.0 16.844947815 12.633710861 12.633710861
423 1 0.0 16.844947815 12.633710861 21.056184769
424 1 0.0 16.844947815 12.633710861 29.478658676
425 1 0.0 16.844947815 21.056184769 4.211236954
426 1 0.0 16.844947815 21.056184769 12.633710861
427 1 0.0 16.844947815 21.056184769 21.056184769
428 1 0.0 16.844947815 21.056184769 29.478658676
429 1 0.0 16.844947815 29.478658676 4.211236954
430 1 0.0 16.844947815 29.478658676 12.633710861
431 1 0.0 16.844947815 29.478658676 21.056184769
432 1 0.0 16.844947815 29.478658676 29.478658676
433 1 0.0 25.267421722 4.211236954 4.211236954
434 1 0.0 25.267421722 4.211236954 12.633710861
435 1 0.0 25.267421722 4.211236954 21.056184769
436 1 0.0 25.267421722 4.211236954 29.478658676
437 1 0.0 25.267421722 12.633710861 4.211236954
438 1 0.0 25.267421722 12.633710861 12.633710861
439 1 0.0 25.267421722 12.633710861 21.056184769
440 1 0.0 25.267421722 12.633710861 29.478658676
441 1 0.0 25.267421722 21.056184769 4.211236954
442 1 0.0 25.267421722 21.056184769 12.633710861
443 1 0.0 25.267421722 21.056184769 21.056184769
444 1 0.0 25.267421722 21.056184769 29.478658676
445 1 0.0 25.267421722 29.478658676 4.211236954
446 1 0.0 25.267421722 29.478658676 12.633710861
447 1 0.0 25.267421722 29.478658676 21.056184769
448 1 0.0 25.267421722 29.478658676 29.478658676
449 1 0.0 6.316855431 6.316855431 2.105618477
450 1 0.0 6.316855431 6.316855431 10.528092384
451 1 0.0 6.316855431 6.316855431 18.950565338
452 1 0.0 6.316855431 6.316855431 27.373039246
453 1 0.0 6.316855431 14.739329338 2.105618477
454 1 0.0 6.316855431 14.739329338 10.528092384
455 1 0.0 6.316855431 14.739329338 18.950565338
456 1 0.0 6.316855431 14.739329338 27.373039246
457 1 0.0 6.316855431 23.161804199 2.105618477
458 1 0.0 6.316855431 23.161804199 10.528092384
459 1 0.0 6.316855431 23.161804199 18.950565338
460 1 0.0 6.316855431 23.161804199 27.373039246
461 1 0.0 6.316855431 31.584278107 2.105618477
462 1 0.0 6.316855431 31.584278107 10.528092384
463 1 0.0 6.316855431 31.584278107 18.950565338
464 1 0.0 6.316855431 31.584278107 27.373039246
465 1 0.0 14.739329338 6.316855431 2.105618477
466 1 0.0 14.739329338 6.316855431 10.528092384
467 1 0.0 14.739329338 6.316855431 18.950565338
468 1 0.0 14.739329338 6.316855431 27.373039246
469 1 0.0 14.739329338 14.739329338 2.105618477
470 1 0.0 14.739329338 14.739329338 10.528092384
471 1 0.0 14.739329338 14.739329338 18.950565338
472 1 0.0 14.739329338 14.739329338 27.373039246
473 1 0.0 14.739329338 23.161804199 2.105618477
474 1 0.0 14.739329338 23.161804199 10.528092384
475 1 0.0 14.739329338 23.161804199 18.950565338
476 1 0.0 14.739329338 23.161804199 27.373039246
477 1 0.0 14.739329338 31.584278107 2.105618477
478 1 0.0 14.739329338 31.584278107 10.528092384
479 1 0.0 14.739329338 31.584278107 18.950565338
480 1 0.0 14.739329338 31.584278107 27.373039246
481 1 0.0 23.161804199 6.316855431 2.105618477
482 1 0.0 23.161804199 6.316855431 10.528092384
483 1 0.0 23.161804199 6.316855431 18.950565338
484 1 0.0 23.161804199 6.316855431 27.373039246
485 1 0.0 23.161804199 14.739329338 2.105618477
486 1 0.0 23.161804199 14.739329338 10.528092384
487 1 0.0 23.161804199 14.739329338 18.950565338
488 1 0.0 23.161804199 14.739329338 27.373039246
489 1 0.0 23.161804199 23.161804199 2.105618477
490 1 0.0 23.161804199 23.161804199 10.528092384
491 1 0.0 23.161804199 23.161804199 18.950565338
492 1 0.0 23.161804199 23.161804199 27.373039246
493 1 0.0 23.161804199 31.584278107 2.105618477
494 1 0.0 23.161804199 31.584278107 10.528092384
495 1 0.0 23.161804199 31.584278107 18.950565338
496 1 0.0 23.161804199 31.584278107 27.373039246
497 1 0.0 31.584278107 6.316855431 2.105618477
498 1 0.0 31.584278107 6.316855431 10.528092384
499 1 0.0 31.584278107 6.316855431 18.950565338
500 1 0.0 31.584278107 6.316855431 27.373039246
501 1 0.0 31.584278107 14.739329338 2.105618477
502 1 0.0 31.584278107 14.739329338 10.528092384
503 1 0.0 31.584278107 14.739329338 18.950565338
504 1 0.0 31.584278107 14.739329338 27.373039246
505 1 0.0 31.584278107 23.161804199 2.105618477
506 1 0.0 31.584278107 23.161804199 10.528092384
507 1 0.0 31.584278107 23.161804199 18.950565338
508 1 0.0 31.584278107 23.161804199 27.373039246
509 1 0.0 31.584278107 31.584278107 2.105618477
510 1 0.0 31.584278107 31.584278107 10.528092384
511 1 0.0 31.584278107 31.584278107 18.950565338
512 1 0.0 31.584278107 31.584278107 27.373039246
513 2 0.0 1.052809238 7.369664669 3.158427715
514 2 0.0 1.052809238 7.369664669 11.5809021
515 2 0.0 1.052809238 7.369664669 20.003376007
516 2 0.0 1.052809238 7.369664669 28.425849915
517 2 0.0 1.052809238 15.792139053 3.158427715
518 2 0.0 1.052809238 15.792139053 11.5809021
519 2 0.0 1.052809238 15.792139053 20.003376007
520 2 0.0 1.052809238 15.792139053 28.425849915
521 2 0.0 1.052809238 24.214612961 3.158427715
522 2 0.0 1.052809238 24.214612961 11.5809021
523 2 0.0 1.052809238 24.214612961 20.003376007
524 2 0.0 1.052809238 24.214612961 28.425849915
525 2 0.0 1.052809238 32.637084961 3.158427715
526 2 0.0 1.052809238 32.637084961 11.5809021
527 2 0.0 1.052809238 32.637084961 20.003376007
528 2 0.0 1.052809238 32.637084961 28.425849915
529 2 0.0 9.475282669 7.369664669 3.158427715
530 2 0.0 9.475282669 7.369664669 11.5809021
531 2 0.0 9.475282669 7.369664669 20.003376007
532 2 0.0 9.475282669 7.369664669 28.425849915
533 2 0.0 9.475282669 15.792139053 3.158427715
534 2 0.0 9.475282669 15.792139053 11.5809021
535 2 0.0 9.475282669 15.792139053 20.003376007
536 2 0.0 9.475282669 15.792139053 28.425849915
537 2 0.0 9.475282669 24.214612961 3.158427715
538 2 0.0 9.475282669 24.214612961 11.5809021
539 2 0.0 9.475282669 24.214612961 20.003376007
540 2 0.0 9.475282669 24.214612961 28.425849915
541 2 0.0 9.475282669 32.637084961 3.158427715
542 2 0.0 9.475282669 32.637084961 11.5809021
543 2 0.0 9.475282669 32.637084961 20.003376007
544 2 0.0 9.475282669 32.637084961 28.425849915
545 2 0.0 17.897756577 7.369664669 3.158427715
546 2 0.0 17.897756577 7.369664669 11.5809021
547 2 0.0 17.897756577 7.369664669 20.003376007
548 2 0.0 17.897756577 7.369664669 28.425849915
549 2 0.0 17.897756577 15.792139053 3.158427715
550 2 0.0 17.897756577 15.792139053 11.5809021
551 2 0.0 17.897756577 15.792139053 20.003376007
552 2 0.0 17.897756577 15.792139053 28.425849915
553 2 0.0 17.897756577 24.214612961 3.158427715
554 2 0.0 17.897756577 24.214612961 11.5809021
555 2 0.0 17.897756577 24.214612961 20.003376007
556 2 0.0 17.897756577 24.214612961 28.425849915
557 2 0.0 17.897756577 32.637084961 3.158427715
558 2 0.0 17.897756577 32.637084961 11.5809021
559 2 0.0 17.897756577 32.637084961 20.003376007
560 2 0.0 17.897756577 32.637084961 28.425849915
561 2 0.0 26.320230484 7.369664669 3.158427715
562 2 0.0 26.320230484 7.369664669 11.5809021
563 2 0.0 26.320230484 7.369664669 20.003376007
564 2 0.0 26.320230484 7.369664669 28.425849915
565 2 0.0 26.320230484 15.792139053 3.158427715
566 2 0.0 26.320230484 15.792139053 11.5809021
567 2 0.0 26.320230484 15.792139053 20.003376007
568 2 0.0 26.320230484 15.792139053 28.425849915
569 2 0.0 26.320230484 24.214612961 3.158427715
570 2 0.0 26.320230484 24.214612961 11.5809021
571 2 0.0 26.320230484 24.214612961 20.003376007
572 2 0.0 26.320230484 24.214612961 28.425849915
573 2 0.0 26.320230484 32.637084961 3.158427715
574 2 0.0 26.320230484 32.637084961 11.5809021
575 2 0.0 26.320230484 32.637084961 20.003376007
576 2 0.0 26.320230484 32.637084961 28.425849915
577 2 0.0 3.158427715 5.264046192 3.158427715
578 2 0.0 3.158427715 5.264046192 11.5809021
579 2 0.0 3.158427715 5.264046192 20.003376007
580 2 0.0 3.158427715 5.264046192 28.425849915
581 2 0.0 3.158427715 13.686519623 3.158427715
582 2 0.0 3.158427715 13.686519623 11.5809021
583 2 0.0 3.158427715 13.686519623 20.003376007
584 2 0.0 3.158427715 13.686519623 28.425849915
585 2 0.0 3.158427715 22.10899353 3.158427715
586 2 0.0 3.158427715 22.10899353 11.5809021
587 2 0.0 3.158427715 22.10899353 20.003376007
588 2 0.0 3.158427715 22.10899353 28.425849915
589 2 0.0 3.158427715 30.531467438 3.158427715
590 2 0.0 3.158427715 30.531467438 11.5809021
591 2 0.0 3.158427715 30.531467438 20.003376007
592 2 0.0 3.158427715 30.531467438 28.425849915
593 2 0.0 11.5809021 5.264046192 3.158427715
594 2 0.0 11.5809021 5.264046192 11.5809021
595 2 0.0 11.5809021 5.264046192 20.003376007
596 2 0.0 11.5809021 5.264046192 28.425849915
597 2 0.0 11.5809021 13.686519623 3.158427715
598 2 0.0 11.5809021 13.686519623 11.5809021
599 2 0.0 11.5809021 13.686519623 20.003376007
600 2 0.0 11.5809021 13.686519623 28.425849915
601 2 0.0 11.5809021 22.10899353 3.158427715
602 2 0.0 11.5809021 22.10899353 11.5809021
603 2 0.0 11.5809021 22.10899353 20.003376007
604 2 0.0 11.5809021 22.10899353 28.425849915
605 2 0.0 11.5809021 30.531467438 3.158427715
606 2 0.0 11.5809021 30.531467438 11.5809021
607 2 0.0 11.5809021 30.531467438 20.003376007
608 2 0.0 11.5809021 30.531467438 28.425849915
609 2 0.0 20.003376007 5.264046192 3.158427715
610 2 0.0 20.003376007 5.264046192 11.5809021
611 2 0.0 20.003376007 5.264046192 20.003376007
612 2 0.0 20.003376007 5.264046192 28.425849915
613 2 0.0 20.003376007 13.686519623 3.158427715
614 2 0.0 20.003376007 13.686519623 11.5809021
615 2 0.0 20.003376007 13.686519623 20.003376007
616 2 0.0 20.003376007 13.686519623 28.425849915
617 2 0.0 20.003376007 22.10899353 3.158427715
618 2 0.0 20.003376007 22.10899353 11.5809021
619 2 0.0 20.003376007 22.10899353 20.003376007
620 2 0.0 20.003376007 22.10899353 28.425849915
621 2 0.0 20.003376007 30.531467438 3.158427715
622 2 0.0 20.003376007 30.531467438 11.5809021
623 2 0.0 20.003376007 30.531467438 20.003376007
624 2 0.0 20.003376007 30.531467438 28.425849915
625 2 0.0 28.425849915 5.264046192 3.158427715
626 2 0.0 28.425849915 5.264046192 11.5809021
627 2 0.0 28.425849915 5.264046192 20.003376007