LAMMPS data file via write_data, version 14 May 2016, timestep = 43

2400 atoms
3 atom types

-1.3661867734773653e+01 1.3661867734773653e+01 xlo xhi
-1.1831524521434787e+01 1.1831524521434787e+01 ylo yhi
-1.3886698584968638e+01 1.3892294993369598e+01 zlo zhi
-1.3661867734748089e+01 0.0000000000000000e+00 0.0000000000000000e+00 xy xz yz

Masses

1 6.941
2 58.933
3 16

Atoms # charge

1 1 4.1878665230020123e-01 -4.7349523235595825e-07 7.6365171963743705e-07 6.9446528790500608e+00 0 0 0
2 1 4.1878578928246790e-01 1.3661863161990002e+00 7.8876908320707173e-01 1.1574485050534800e+01 0 0 0
3 1 4.1878697048675467e-01 -4.7303371353279999e-07 1.5775373372605106e+00 2.3148207909623189e+00 0 0 0
4 2 1.0734651099532941e+00 -5.2571782660493227e-07 8.3771966075119053e-07 -9.5286372085112703e-05 0 0 0
5 2 1.0734651314144705e+00 1.3661862256065529e+00 7.8876891209485755e-01 4.6297362104718083e+00 0 0 0
6 2 1.0734647171366627e+00 -3.9153239050904176e-07 1.5775373461327273e+00 9.2595695584545439e+00 0 0 0
7 3 -7.4612480128278491e-01 -4.2910957454012078e-07 7.2476576384872260e-07 3.5880406948812684e+00 0 0 0
8 3 -7.4612656591476867e-01 -3.6240185785629819e-07 7.7229672612588729e-07 1.0301265355124816e+01 0 0 0
9 3 -7.4612545680260267e-01 1.3661864200020393e+00 7.8876917641219890e-01 8.2178710650990077e+00 0 0 0
10 3 -7.4612484367267218e-01 1.3661863516852382e+00 7.8876925120876784e-01 1.0416013176230443e+00 0 0 0
11 3 -7.4612747185794526e-01 -5.4917695102574271e-07 1.5775374052227082e+00 1.2847704598165162e+01 0 0 0
12 3 -7.4612444884649975e-01 -5.0746884738828157e-07 1.5775374309489401e+00 5.6714349775977659e+00 0 0 0
13 1 4.1878640946925905e-01 2.7323730717005592e+00 7.5888517336863970e-07 6.9446528916637114e+00 0 0 0
14 1 4.1878576416294566e-01 4.0985598701497263e+00 7.8876908318469141e-01 1.1574485069132276e+01 0 0 0
15 1 4.1878658629618742e-01 2.7323730703565854e+00 1.5775373358879570e+00 2.3148207862581813e+00 0 0 0
16 2 1.0734649928485929e+00 2.7323730034572282e+00 8.3495856451065720e-07 -9.5301191306518263e-05 0 0 0
17 2 1.0734648054523264e+00 4.0985597719754789e+00 7.8876890906128061e-01 4.6297362197773317e+00 0 0 0
18 2 1.0734645011353516e+00 2.7323731640516140e+00 1.5775373381935687e+00 9.2595695835595677e+00 0 0 0
19 3 -7.4612543887065308e-01 2.7323731282580308e+00 7.3169912795378877e-07 3.5880406895455685e+00 0 0 0
20 3 -7.4612670831062367e-01 2.7323731789840746e+00 7.7721187707879835e-07 1.0301265335398796e+01 0 0 0
21 3 -7.4612609988060874e-01 4.0985599606009000e+00 7.8876917843477301e-01 8.2178710411903104e+00 0 0 0
22 3 -7.4612544489317667e-01 4.0985599027142658e+00 7.8876925035444145e-01 1.0416013313260493e+00 0 0 0
23 3 -7.4612731992001224e-01 2.7323729862046289e+00 1.5775374036017880e+00 1.2847704580432428e+01 0 0 0
24 3 -7.4612546524359602e-01 2.7323730421223775e+00 1.5775374383404923e+00 5.6714349707257448e+00 0 0 0
25 1 4.1878614934510028e-01 5.4647466237640696e+00 7.6078621447095429e-07 6.9446529089498341e+00 0 0 0
26 1 4.1878579536228772e-01 -2.0492802048214703e+01 7.8876908334161122e-01 1.1574485085455311e+01 1 0 0
27 1 4.1878627312959837e-01 5.4647466236733830e+00 1.5775373409470426e+00 2.3148207848531257e+00 0 0 0
28 2 1.0734648628878389e+00 5.4647465501330057e+00 8.4043123749211190e-07 -9.5317706405140257e-05 0 0 0
29 2 1.0734647114098892e+00 -2.0492802131683391e+01 7.8876892338700522e-01 4.6297362323590541e+00 1 0 0
30 2 1.0734643579861016e+00 5.4647467250550914e+00 1.5775373388529257e+00 9.2595696103271514e+00 0 0 0
31 3 -7.4612610506952670e-01 5.4647466714927919e+00 7.2753643465262030e-07 3.5880406801499873e+00 0 0 0
32 3 -7.4612684821525543e-01 5.4647467193059445e+00 7.7760534011872551e-07 1.0301265310132738e+01 0 0 0
33 3 -7.4612622397769357e-01 -2.0492801972609286e+01 7.8876917269746016e-01 8.2178710183921098e+00 1 0 0
34 3 -7.4612567640762828e-01 -2.0492802030227757e+01 7.8876924185448516e-01 1.0416013412327700e+00 1 0 0
35 3 -7.4612713296691824e-01 5.4647465293496769e+00 1.5775374061858916e+00 1.2847704565273673e+01 0 0 0
36 3 -7.4612623265515099e-01 5.4647465777585520e+00 1.5775374338228048e+00 5.6714349592722684e+00 0 0 0
37 1 4.1878619214155377e-01 -1.9126615288880004e+01 7.6870208332024959e-07 6.9446529242721731e+00 1 0 0
38 1 4.1878586621446379e-01 -1.7760428501443243e+01 7.8876908361840847e-01 1.1574485093250168e+01 1 0 0
39 1 4.1878640294158620e-01 -1.9126615285192099e+01 1.5775373505103936e+00 2.3148207873312714e+00 1 0 0
40 2 1.0734648623724385e+00 -1.9126615355290411e+01 8.5205279098943265e-07 -9.5329475390926177e-05 1 0 0
41 2 1.0734649400212213e+00 -1.7760428554033112e+01 7.8876894951994636e-01 4.6297362434077272e+00 1 0 0
42 2 1.0734644828758675e+00 -1.9126615183773545e+01 1.5775373479901944e+00 9.2595696283867071e+00 1 0 0
43 3 -7.4612601886268926e-01 -1.9126615267375556e+01 7.1377855270782220e-07 3.5880406703038297e+00 1 0 0
44 3 -7.4612678717299519e-01 -1.9126615208401272e+01 7.7322041924787754e-07 1.0301265289065633e+01 1 0 0
45 3 -7.4612567657774820e-01 -1.7760428436221090e+01 7.8876916143055276e-01 8.2178710054443194e+00 1 0 0
46 3 -7.4612533219293031e-01 -1.7760428503880018e+01 7.8876922897818247e-01 1.0416013435276152e+00 1 0 0
47 3 -7.4612707256054733e-01 -1.9126615387836303e+01 1.5775374119238084e+00 1.2847704558604462e+01 1 0 0
48 3 -7.4612581041883619e-01 -1.9126615365479239e+01 1.5775374190641038e+00 5.6714349475740526e+00 1 0 0
49 1 4.1878644581617336e-01 -1.6394241731059147e+01 7.7949873400484648e-07 6.9446529317909977e+00 1 0 0
50 1 4.1878590197570803e-01 -1.5028054959018704e+01 7.8876908383383970e-01 1.1574485089624847e+01 1 0 0
51 1 4.1878675716517216e-01 -1.6394241722547704e+01 1.5775373608790595e+00 2.3148207927057314e+00 1 0 0
52 2 1.0734649551272366e+00 -1.6394241780498383e+01 8.6536636878520312e-07 -9.5332044093510149e-05 1 0 0
53 2 1.0734651586322961e+00 -1.5028054976601489e+01 7.8876897715186622e-01 4.6297362486850702e+00 1 0 0
54 2 1.0734647101354697e+00 -1.6394241628962835e+01 1.5775373619013067e+00 9.2595696309412787e+00 1 0 0
55 3 -7.4612540445349795e-01 -1.6394241742788950e+01 6.9583037110021451e-07 3.5880406637564448e+00 1 0 0
56 3 -7.4612658996514802e-01 -1.6394241663020566e+01 7.6586000830047851e-07 1.0301265280214231e+01 1 0 0
57 3 -7.4612520992070885e-01 -1.5028054895629552e+01 7.8876914917203145e-01 8.2178710071646179e+00 1 0 0
58 3 -7.4612496363246494e-01 -1.5028054979809617e+01 7.8876921669679589e-01 1.0416013374766191e+00 1 0 0
59 3 -7.4612715086618253e-01 -1.6394241828348015e+01 1.5775374186553837e+00 1.2847704562873137e+01 1 0 0
60 3 -7.4612485101672199e-01 -1.6394241840259227e+01 1.5775373998550961e+00 5.6714349401397470e+00 1 0 0
61 1 4.1878654592294690e-01 -1.3661868176473263e+01 7.8891078381104762e-07 6.9446529286758292e+00 1 0 0
62 1 4.1878586427827219e-01 -1.2295681419191844e+01 7.8876908385899291e-01 1.1574485076035831e+01 1 0 0
63 1 4.1878684382078180e-01 -1.3661868163903408e+01 1.5775373680589198e+00 2.3148207988513505e+00 1 0 0
64 2 1.0734649906494600e+00 -1.3661868205659127e+01 8.7527086023442280e-07 -9.5324590677847709e-05 1 0 0
65 2 1.0734650773103083e+00 -1.2295681410680345e+01 7.8876899560861702e-01 4.6297362461673970e+00 1 0 0
66 2 1.0734647396051797e+00 -1.3661868082956342e+01 1.5775373750092729e+00 9.2595696172239066e+00 1 0 0
67 3 -7.4612514113475736e-01 -1.3661868215748310e+01 6.8072874803704053e-07 3.5880406629830368e+00 1 0 0
68 3 -7.4612650241354528e-01 -1.3661868113498478e+01 7.5852070580140207e-07 1.0301265286851002e+01 1 0 0
69 3 -7.4612544304268547e-01 -1.2295681348578483e+01 7.8876914070921700e-01 8.2178710227853102e+00 1 0 0
70 3 -7.4612508858706705e-01 -1.2295681449409866e+01 7.8876920971020681e-01 1.0416013255105341e+00 1 0 0
71 3 -7.4612724092468696e-01 -1.3661868266528142e+01 1.5775374238927906e+00 1.2847704576263951e+01 1 0 0
72 3 -7.4612467186799580e-01 -1.3661868307909902e+01 1.5775373836852395e+00 5.6714349398703980e+00 1 0 0
73 1 4.1878636448167195e-01 -1.0929494627920548e+01 7.9336670388840957e-07 6.9446529161293746e+00 1 0 0
74 1 4.1878579983242975e-01 -9.5633078792217425e+00 7.8876908373101173e-01 1.1574485057632586e+01 1 0 0
75 1 4.1878657828000410e-01 -1.0929494613550853e+01 1.5775373693337880e+00 2.3148208034161684e+00 1 0 0
76 2 1.0734649205631499e+00 -1.0929494641206492e+01 8.7799315195979943e-07 -9.5310019581518191e-05 1 0 0
77 2 1.0734648447963708e+00 -9.5633078630389008e+00 7.8876899809299239e-01 4.6297362368297073e+00 1 0 0
78 2 1.0734645460820105e+00 -1.0929494544974272e+01 1.5775373823602070e+00 9.2595695925020856e+00 1 0 0
79 3 -7.4612553675039750e-01 -1.0929494678884900e+01 6.7420322480415962e-07 3.5880406682729742e+00 1 0 0
80 3 -7.4612662200276592e-01 -1.0929494560877409e+01 7.5399147902999175e-07 1.0301265306405316e+01 1 0 0
81 3 -7.4612601634328923e-01 -9.5633077953308110e+00 7.8876913910517032e-01 8.2178710463974589e+00 1 0 0
82 3 -7.4612547265976681e-01 -9.5633079065513122e+00 7.8876921063918459e-01 1.0416013121331087e+00 1 0 0
83 3 -7.4612725938612301e-01 -1.0929494708027534e+01 1.5775374256545760e+00 1.2847704593645481e+01 1 0 0
84 3 -7.4612543805575648e-01 -1.0929494763247376e+01 1.5775373766703318e+00 5.6714349468678584e+00 1 0 0
85 1 4.1878618284807284e-01 -8.1971210859312649e+00 7.9131989139114012e-07 6.9446528989104337e+00 1 0 0
86 1 4.1878577798191691e-01 -6.8309343364425628e+00 7.8876908357372599e-01 1.1574485041347391e+01 1 0 0
87 1 4.1878638675235585e-01 -8.1971210727055528e+00 1.5775373642658952e+00 2.3148208047263026e+00 1 0 0
88 2 1.0734648651709982e+00 -8.1971210936844265e+00 8.7251345703975858e-07 -9.5293772391258358e-05 1 0 0
89 2 1.0734648291019941e+00 -6.8309343339790827e+00 7.8876898392982930e-01 4.6297362242549163e+00 1 0 0
90 2 1.0734644081909865e+00 -8.1971210114201654e+00 1.5775373814412763e+00 9.2595695660270962e+00 1 0 0
91 3 -7.4612592374015718e-01 -8.1971211285043815e+00 6.7854224283792064e-07 3.5880406776270206e+00 1 0 0
92 3 -7.4612677220373269e-01 -8.1971210073697005e+00 7.5380905961708322e-07 1.0301265331495404e+01 1 0 0
93 3 -7.4612610274471514e-01 -6.8309342382653391e+00 7.8876914476385274e-01 8.2178710691293162e+00 1 0 0
94 3 -7.4612547660677964e-01 -6.8309343496650197e+00 7.8876921909201236e-01 1.0416013022922712e+00 1 0 0
95 3 -7.4612726607528135e-01 -8.1971211572409040e+00 1.5775374231968833e+00 1.2847704608552736e+01 1 0 0
96 3 -7.4612596577346557e-01 -8.1971212055666847e+00 1.5775373813007754e+00 5.6714349583980308e+00 1 0 0
97 1 4.1878629130265294e-01 -5.4647475486754171e+00 7.8362455013802901e-07 6.9446528835624051e+00 1 0 0
98 1 4.1878580247300495e-01 -4.0985607892834643e+00 7.8876908344706109e-01 1.1574485033381688e+01 1 0 0
99 1 4.1878659475354280e-01 -5.4647475391551978e+00 1.5775373547947638e+00 2.3148208023288177e+00 1 0 0
100 2 1.0734649383229473e+00 -5.4647475634389213e+00 8.6092636841783587e-07 -9.5281920836853828e-05 1 0 0
101 2 1.0734650911456647e+00 -4.0985608171788339e+00 7.8876895844656758e-01 4.6297362132426656e+00 1 0 0
102 2 1.0734645191333816e+00 -5.4647474774854228e+00 1.5775373727317934e+00 9.2595695477651496e+00 1 0 0
103 3 -7.4612562764980328e-01 -5.4647475657771931e+00 6.9200129004798328e-07 3.5880406874932902e+00 1 0 0
104 3 -7.4612675055598754e-01 -5.4647474554472311e+00 7.5793850307093180e-07 1.0301265352625450e+01 1 0 0
105 3 -7.4612556386122253e-01 -4.0985606809943658e+00 7.8876915556362448e-01 8.2178710823326568e+00 1 0 0
106 3 -7.4612498105151703e-01 -4.0985607823396482e+00 7.8876923186452963e-01 1.0416012997125463e+00 1 0 0
107 3 -7.4612734854894669e-01 -5.4647476156517527e+00 1.5775374173962202e+00 1.2847704615417719e+01 1 0 0
108 3 -7.4612540585864107e-01 -5.4647476386772507e+00 1.5775373957525360e+00 5.6714349700181970e+00 1 0 0
109 1 4.1878657286396725e-01 -2.7323740125759350e+00 7.7310997959045835e-07 6.9446528759605641e+00 1 0 0
110 1 4.1878581628828943e-01 -1.3661872378380355e+00 7.8876908332478557e-01 1.1574485036863564e+01 1 0 0
111 1 4.1878695400416516e-01 -2.7323740079432657e+00 1.5775373444919421e+00 2.3148207970991059e+00 1 0 0
112 2 1.0734650758129509e+00 -2.7323740443255975e+00 8.4764112884272436e-07 -9.5279033205386554e-05 1 0 0
113 2 1.0734652855128217e+00 -1.3661873014053789e+00 7.8876893105361745e-01 4.6297362079809297e+00 1 0 0
114 2 1.0734647186662594e+00 -2.7323739385749786e+00 1.5775373593446282e+00 9.2595695447928961e+00 1 0 0
115 3 -7.4612495259779443e-01 -2.7323739964712797e+00 7.0958842535162603e-07 3.5880406940946408e+00 1 0 0
116 3 -7.4612660655304364e-01 -2.7323739069293591e+00 7.6492998068999896e-07 1.0301265361691684e+01 1 0 0
117 3 -7.4612514865983592e-01 -1.3661871273243147e+00 7.8876916761208626e-01 8.2178710808366482e+00 1 0 0
118 3 -7.4612459514406038e-01 -1.3661872122287786e+00 7.8876924412889515e-01 1.0416013055216045e+00 1 0 0
119 3 -7.4612746414557474e-01 -2.7323740812274782e+00 1.5775374104994633e+00 1.2847704611521511e+01 1 0 0
120 3 -7.4612446312890257e-01 -2.7323740698343588e+00 1.5775374146590995e+00 5.6714349773275785e+00 1 0 0
121 1 4.1878653468175048e-01 -1.3661872512230993e+00 2.3663056485691154e+00 6.9446528961453105e+00 0 0 0
122 1 4.1878590540008120e-01 -4.6091992444985408e-07 3.1550739924119320e+00 1.1574485080945522e+01 0 0 0
123 1 4.1878665750105959e-01 -1.3661872467483551e+00 3.9438422127323634e+00 2.3148207901209119e+00 0 0 0
124 2 1.0734651095710750e+00 -1.3661872936125761e+00 2.3663056635694026e+00 -9.5314916890743007e-05 0 0 0
125 2 1.0734650549029148e+00 -5.5431383216841823e-07 3.1550737748252704e+00 4.6297362189797440e+00 0 0 0
126 2 1.0734648587007933e+00 -1.3661871764915503e+00 3.9438422676901261e+00 9.2595696044222429e+00 0 0 0
127 3 -7.4612500890536393e-01 -1.3661871996443544e+00 2.3663056770809128e+00 3.5880406918199199e+00 0 0 0
128 3 -7.4612675799470185e-01 -1.3661871282835332e+00 2.3663056651696603e+00 1.0301265325896100e+01 0 0 0
129 3 -7.4612541038209912e-01 -3.4603912801856040e-07 3.1550740860407149e+00 8.2178710293741162e+00 0 0 0
130 3 -7.4612514520158102e-01 -4.2413608980496065e-07 3.1550742027933296e+00 1.0416013418272279e+00 0 0 0
131 3 -7.4612667828021972e-01 -1.3661873197678105e+00 3.9438422947233427e+00 1.2847704572959135e+01 0 0 0
132 3 -7.4612460700097238e-01 -1.3661872745439130e+00 3.9438423467487453e+00 5.6714349573678895e+00 0 0 0
133 1 4.1878619101239689e-01 1.3661862949783607e+00 2.3663056432245568e+00 6.9446529066961702e+00 0 0 0
134 1 4.1878572372344336e-01 2.7323730931569425e+00 3.1550739923150495e+00 1.1574485101531227e+01 0 0 0
135 1 4.1878635392909402e-01 1.3661862974746253e+00 3.9438422108781861e+00 2.3148207806043359e+00 0 0 0
136 2 1.0734650485463739e+00 1.3661862364764019e+00 2.3663056602716885e+00 -9.5335712725130861e-05 0 0 0
137 2 1.0734646374048138e+00 2.7323729961668857e+00 3.1550737694193174e+00 4.6297362228739729e+00 0 0 0
138 2 1.0734646219594228e+00 1.3661863793874893e+00 3.9438422595829135e+00 9.2595696302553208e+00 0 0 0
139 3 -7.4612567059092172e-01 1.3661863555820997e+00 2.3663056852512607e+00 3.5880406915353404e+00 0 0 0
140 3 -7.4612715777792982e-01 1.3661864125503111e+00 2.3663056704037508e+00 1.0301265305480918e+01 0 0 0
141 3 -7.4612647765588747e-01 2.7323731920536591e+00 3.1550740895062575e+00 8.2178710061330342e+00 0 0 0
142 3 -7.4612569898648917e-01 2.7323731264650899e+00 3.1550742021914306e+00 1.0416013600947789e+00 0 0 0
143 3 -7.4612668427173090e-01 1.3661862171153185e+00 3.9438422922412020e+00 1.2847704549857077e+01 0 0 0
144 3 -7.4612553411438909e-01 1.3661862737291433e+00 3.9438423548974697e+00 5.6714349549446261e+00 0 0 0
145 1 4.1878564674220475e-01 4.0985598493824877e+00 2.3663056437769043e+00 6.9446529217913309e+00 0 0 0
146 1 4.1878564231277488e-01 -2.1858988823666639e+01 3.1550739915839401e+00 1.1574485117677213e+01 1 0 0
147 1 4.1878594289792975e-01 4.0985598513980985e+00 3.9438422155854429e+00 2.3148207757038826e+00 0 0 0
148 2 1.0734649270092971e+00 4.0985597815343358e+00 2.3663056666706783e+00 -9.5355095822924341e-05 0 0 0
149 2 1.0734643784610902e+00 -2.1858988902219291e+01 3.1550737806996150e+00 4.6297362320314370e+00 1 0 0
150 2 1.0734643046597188e+00 4.0985599451294608e+00 3.9438422575105285e+00 9.2595696560074394e+00 0 0 0
151 3 -7.4612674858917205e-01 4.0985598962739598e+00 2.3663056825589379e+00 3.5880406857774325e+00 0 0 0
152 3 -7.4612773685171963e-01 4.0985599494864271e+00 2.3663056727491991e+00 1.0301265281219976e+01 0 0 0
153 3 -7.4612708991947285e-01 -2.1858988745745858e+01 3.1550740864144267e+00 8.2178709851559226e+00 1 0 0
154 3 -7.4612609332363167e-01 -2.1858988805888171e+01 3.1550741933540714e+00 1.0416013713768315e+00 1 0 0
155 3 -7.4612670075612075e-01 4.0985597600179151e+00 3.9438422949677623e+00 1.2847704531473305e+01 0 0 0
156 3 -7.4612678002765065e-01 4.0985598060299875e+00 3.9438423523037649e+00 5.6714349475879438e+00 0 0 0
157 1 4.1878560952854732e-01 -2.0492802060473473e+01 2.3663056500839819e+00 6.9446529356329130e+00 1 0 0
158 1 4.1878579359160456e-01 -1.9126615274585568e+01 3.1550739905301555e+00 1.1574485123139851e+01 1 0 0
159 1 4.1878592857525437e-01 -2.0492802057248824e+01 3.9438422250217755e+00 2.3148207773967826e+00 1 0 0
160 2 1.0734648811572802e+00 -2.0492802127284911e+01 2.3663056802530331e+00 -9.5365361032051510e-05 1 0 0
161 2 1.0734645975110488e+00 -1.9126615320227980e+01 3.1550738043186417e+00 4.6297362430094822e+00 1 0 0
162 2 1.0734643321010346e+00 -2.0492801956215040e+01 3.9438422623316001e+00 9.2595696716410067e+00 1 0 0
163 3 -7.4612689545037458e-01 -2.0492802044625801e+01 2.3663056699766525e+00 3.5880406767216364e+00 1 0 0
164 3 -7.4612770974787379e-01 -2.0492801983118607e+01 2.3663056711866570e+00 1.0301265262508974e+01 1 0 0
165 3 -7.4612643136377288e-01 -1.9126615214169252e+01 3.1550740779259385e+00 8.2178709745637661e+00 1 0 0
166 3 -7.4612588509578681e-01 -1.9126615278202440e+01 3.1550741797052364e+00 1.0416013712203522e+00 1 0 0
167 3 -7.4612662169801325e-01 -2.0492802159047432e+01 3.9438423017864963e+00 1.2847704525068160e+01 1 0 0
168 3 -7.4612674986434835e-01 -2.0492802141411392e+01 3.9438423399740898e+00 5.6714349379892326e+00 1 0 0
169 1 4.1878610458439852e-01 -1.7760428500618403e+01 2.3663056597030678e+00 6.9446529429289434e+00 1 0 0
170 1 4.1878599049430948e-01 -1.6394241730041564e+01 3.1550739895228848e+00 1.1574485115914225e+01 1 0 0
171 1 4.1878629330939504e-01 -1.7760428494888540e+01 3.9438422355532001e+00 2.3148207850265479e+00 1 0 0
172 2 1.0734649428971943e+00 -1.7760428556361287e+01 2.3663056958023958e+00 -9.5362579093816180e-05 1 0 0
173 2 1.0734649791626401e+00 -1.6394241741389052e+01 3.1550738311273427e+00 4.6297362515411926e+00 1 0 0
174 2 1.0734646693597758e+00 -1.7760428394320282e+01 3.9438422721495048e+00 9.2595696712030353e+00 1 0 0
175 3 -7.4612600481411939e-01 -1.7760428520621250e+01 2.3663056523694639e+00 3.5880406678359371e+00 1 0 0
176 3 -7.4612709783753361e-01 -1.7760428442082524e+01 2.3663056663334761e+00 1.0301265256503317e+01 1 0 0
177 3 -7.4612539585002846e-01 -1.6394241676536140e+01 3.1550740673817756e+00 8.2178709782926873e+00 1 0 0
178 3 -7.4612542644837898e-01 -1.6394241752478813e+01 3.1550741664684860e+00 1.0416013598371592e+00 1 0 0
179 3 -7.4612649317717727e-01 -1.7760428602261648e+01 3.9438423100735314e+00 1.2847704533070964e+01 1 0 0
180 3 -7.4612554553674149e-01 -1.7760428619498335e+01 3.9438423226820127e+00 5.6714349298250006e+00 1 0 0
181 1 4.1878644993666975e-01 -1.5028054945613771e+01 2.3663056688697655e+00 6.9446529409215501e+00 1 0 0
182 1 4.1878597666940470e-01 -1.3661868189080479e+01 3.1550739888938661e+00 1.1574485098887163e+01 1 0 0
183 1 4.1878653639515734e-01 -1.5028054937004708e+01 3.9438422431721243e+00 2.3148207955673463e+00 1 0 0
184 2 1.0734650078253019e+00 -1.5028054984496054e+01 2.3663057074286300e+00 -9.5348108697379530e-05 1 0 0
185 2 1.0734650139566757e+00 -1.3661868177652876e+01 3.1550738508453176e+00 4.6297362542668488e+00 1 0 0
186 2 1.0734648684613606e+00 -1.5028054844607851e+01 3.9438422831106070e+00 9.2595696550735020e+00 1 0 0
187 3 -7.4612532134720233e-01 -1.5028054992344851e+01 2.3663056365559250e+00 3.5880406625453389e+00 1 0 0
188 3 -7.4612670579031803e-01 -1.5028054894612019e+01 2.3663056601808137e+00 1.0301265265371718e+01 1 0 0
189 3 -7.4612535767715726e-01 -1.3661868129429358e+01 3.1550740588908699e+00 8.2178709947436275e+00 1 0 0
190 3 -7.4612535337976682e-01 -1.3661868220660503e+01 3.1550741586582376e+00 1.0416013418113597e+00 1 0 0
191 3 -7.4612647371054697e-01 -1.5028055042901119e+01 3.9438423167278973e+00 1.2847704552177291e+01 1 0 0
192 3 -7.4612480177082963e-01 -1.5028055088083436e+01 3.9438423070579809e+00 5.6714349263372696e+00 1 0 0
193 1 4.1878619807377604e-01 -1.2295681398335228e+01 2.3663056740611381e+00 6.9446529304003306e+00 1 0 0
194 1 4.1878577466610500e-01 -1.0929494649314830e+01 3.1550739888846877e+00 1.1574485078559302e+01 1 0 0
195 1 4.1878636479135017e-01 -1.2295681387618927e+01 3.9438422450079678e+00 2.3148208049338272e+00 1 0 0
196 2 1.0734649868204209e+00 -1.2295681421068307e+01 2.3663057107518011e+00 -9.5327668724110026e-05 1 0 0
197 2 1.0734646955148979e+00 -1.0929494634701982e+01 3.1550738560459077e+00 4.6297362501563377e+00 1 0 0
198 2 1.0734646805643455e+00 -1.2295681307596709e+01 3.9438422910207116e+00 9.2595696295262435e+00 1 0 0
199 3 -7.4612571533405969e-01 -1.2295681452968365e+01 2.3663056285737483e+00 3.5880406628813653e+00 1 0 0
200 3 -7.4612702516978158e-01 -1.2295681341107684e+01 2.3663056551422539e+00 1.0301265285640508e+01 1 0 0
201 3 -7.4612629413683018e-01 -1.0929494573341140e+01 3.1550740556468302e+00 8.2178710176336800e+00 1 0 0
202 3 -7.4612570607737283e-01 -1.0929494677176073e+01 3.1550741592199980e+00 1.0416013240231585e+00 1 0 0
203 3 -7.4612662243383987e-01 -1.2295681485751137e+01 3.9438423192662473e+00 1.2847704574953699e+01 1 0 0
204 3 -7.4612543823750110e-01 -1.2295681541652652e+01 3.9438422990206803e+00 5.6714349289239649e+00 1 0 0
205 1 4.1878574292826137e-01 -9.5633078586962270e+00 2.3663056733714605e+00 6.9446529153692325e+00 1 0 0
206 1 4.1878565340830287e-01 -8.1971211079665594e+00 3.1550739895523634e+00 1.1574485062566229e+01 1 0 0
207 1 4.1878608161695285e-01 -9.5633078475138582e+00 3.9438422403694293e+00 2.3148208096232246e+00 1 0 0
208 2 1.0734649289028517e+00 -9.5633078721871669e+00 2.3663057044921025e+00 -9.5308888989009688e-05 1 0 0
209 2 1.0734645133884633e+00 -8.1971211107721782e+00 3.1550738448469158e+00 4.6297362408877802e+00 1 0 0
210 2 1.0734643897380181e+00 -9.5633077789913870e+00 3.9438422929587862e+00 9.2595696041764981e+00 1 0 0
211 3 -7.4612650850653994e-01 -9.5633078999358805e+00 2.3663056313765871e+00 3.5880406686895689e+00 1 0 0
212 3 -7.4612757446429667e-01 -9.5633077842776810e+00 2.3663056530435593e+00 1.0301265309641359e+01 1 0 0
213 3 -7.4612684579858668e-01 -8.1971210118936497e+00 3.1550740587772808e+00 8.2178710383937990e+00 1 0 0
214 3 -7.4612589670905805e-01 -8.1971211207850736e+00 3.1550741679581407e+00 1.0416013130287585e+00 1 0 0
215 3 -7.4612680522302921e-01 -9.5633079347601111e+00 3.9438423166897625e+00 1.2847704592862758e+01 1 0 0
216 3 -7.4612643008126645e-01 -9.5633079803953827e+00 3.9438423015831301e+00 5.6714349365158832e+00 1 0 0
217 1 4.1878575800134454e-01 -6.8309343239660478e+00 2.3663056671326910e+00 6.9446529015376157e+00 1 0 0
218 1 4.1878576055344319e-01 -5.4647475629707909e+00 3.1550739906730474e+00 1.1574485056940262e+01 1 0 0
219 1 4.1878614207286796e-01 -6.8309343141304488e+00 3.9438422309939227e+00 2.3148208079499710e+00 1 0 0
220 2 1.0734649458753964e+00 -6.8309343385947692e+00 2.3663056909703712e+00 -9.5298640813368252e-05 1 0 0
221 2 1.0734647576821319e+00 -5.4647475976459976e+00 3.1550738214835174e+00 4.6297362300573184e+00 1 0 0
222 2 1.0734644110925471e+00 -6.8309342519948331e+00 3.9438422882518047e+00 9.2595695885057943e+00 1 0 0
223 3 -7.4612646241992886e-01 -6.8309343354818690e+00 2.3663056438389827e+00 3.5880406777249902e+00 1 0 0
224 3 -7.4612757977538346e-01 -6.8309342278278766e+00 2.3663056545630692e+00 1.0301265328337934e+01 1 0 0
225 3 -7.4612621996600026e-01 -5.4647474502737694e+00 3.1550740670681439e+00 8.2178710492028522e+00 1 0 0
226 3 -7.4612555998498586e-01 -5.4647475549379898e+00 3.1550741815858316e+00 1.0416013128836710e+00 1 0 0
227 3 -7.4612685272410495e-01 -6.8309343914660055e+00 3.9438423099075486e+00 1.2847704599300155e+01 1 0 0
228 3 -7.4612627967424494e-01 -6.8309344096033016e+00 3.9438423137820529e+00 5.6714349460964897e+00 1 0 0
229 1 4.1878624867762204e-01 -4.0985607897288485e+00 2.3663056576931680e+00 6.9446528941836618e+00 1 0 0
230 1 4.1878592603397324e-01 -2.7323740136643941e+00 3.1550739917850770e+00 1.1574485063912014e+01 1 0 0
231 1 4.1878650005614487e-01 -4.0985607824690629e+00 3.9438422204313781e+00 2.3148208005434263e+00 1 0 0
232 2 1.0734650457415942e+00 -4.0985608153845394e+00 2.3663056753191842e+00 -9.5300829906719287e-05 1 0 0
233 2 1.0734651034626843e+00 -2.7323740830103258e+00 3.1550737947514982e+00 4.6297362217279492e+00 1 0 0
234 2 1.0734647121173959e+00 -4.0985607196207940e+00 3.9438422786387441e+00 9.2595695885184455e+00 1 0 0
235 3 -7.4612554416760302e-01 -4.0985607658911167e+00 2.3663056612615954e+00 3.5880406865478029e+00 1 0 0
236 3 -7.4612704984865674e-01 -4.0985606751308552e+00 2.3663056591429026e+00 1.0301265334594852e+01 1 0 0
237 3 -7.4612529775896508e-01 -2.7323738937238335e+00 3.1550740774515411e+00 8.2178710458250102e+00 1 0 0
238 3 -7.4612509686482342e-01 -2.7323739866605301e+00 3.1550741949086873e+00 1.0416013237928254e+00 1 0 0
239 3 -7.4612676246812826e-01 -4.0985608544089853e+00 3.9438423014930528e+00 1.2847704591791999e+01 1 0 0
240 3 -7.4612513464623720e-01 -4.0985608378807310e+00 3.9438423310245927e+00 5.6714349540143267e+00 1 0 0
241 1 4.1878656668962783e-01 -2.7323740283739468e+00 4.7326105479133034e+00 6.9446529295770212e+00 0 0 0
242 1 4.1878648360972287e-01 -1.3661872367469350e+00 5.5213789008992293e+00 1.1574485111593212e+01 0 0 0
243 1 4.1878624357356181e-01 -2.7323740212729177e+00 6.3101471148402766e+00 2.3148208011037958e+00 0 0 0
244 2 1.0734647833383810e+00 -2.7323740646714221e+00 4.7326105229783835e+00 -9.5335563567999770e-05 0 0 0
245 2 1.0734649786585762e+00 -1.3661873359125636e+00 5.5213786800762392e+00 4.6297362498297545e+00 0 0 0
246 2 1.0734651153963739e+00 -2.7323739575335502e+00 6.3101471947537036e+00 9.2595696573256241e+00 0 0 0
247 3 -7.4612574924278441e-01 -2.7323739690666091e+00 4.7326106047320700e+00 3.5880406683958412e+00 0 0 0
248 3 -7.4612610579263194e-01 -2.7323738964858837e+00 4.7326105519416508e+00 1.0301265282798607e+01 0 0 0
249 3 -7.4612460336732878e-01 -1.3661871124420024e+00 5.5213789847655441e+00 8.2178709811150554e+00 0 0 0
250 3 -7.4612610598272699e-01 -1.3661871985680296e+00 5.5213791194817183e+00 1.0416013564398412e+00 0 0 0
251 3 -7.4612548566304326e-01 -2.7323740929490974e+00 6.3101472007282737e+00 1.2847704557855252e+01 0 0 0
252 3 -7.4612466741736572e-01 -2.7323740425942180e+00 6.3101472324625547e+00 5.6714349226105618e+00 0 0 0
253 1 4.1878643386931208e-01 -4.8274726438535254e-07 4.7326105429032417e+00 6.9446529389995995e+00 0 0 0
254 1 4.1878630543376349e-01 1.3661863160362131e+00 5.5213789015475427e+00 1.1574485135539085e+01 0 0 0
255 1 4.1878608080318203e-01 -4.7623938748131422e-07 6.3101471125201236e+00 2.3148207873030877e+00 0 0 0
256 2 1.0734647543880071e+00 -5.3142319345056421e-07 4.7326105178548730e+00 -9.5363106533241648e-05 0 0 0
257 2 1.0734646651797215e+00 1.3661862162491811e+00 5.5213786737052217e+00 4.6297362484891345e+00 0 0 0
258 2 1.0734650266607040e+00 -4.0557070413171914e-07 6.3101471889083207e+00 9.2595696853957179e+00 0 0 0
259 3 -7.4612603078952355e-01 -4.1495376557065811e-07 4.7326106135420716e+00 3.5880406725937455e+00 0 0 0
260 3 -7.4612625838643731e-01 -3.5333087744504610e-07 4.7326105558356844e+00 1.0301265260256137e+01 0 0 0
261 3 -7.4612547159332854e-01 1.3661864260105343e+00 5.5213789880220752e+00 8.2178709571646991e+00 0 0 0
262 3 -7.4612645746869033e-01 1.3661863506465899e+00 5.5213791196807804e+00 1.0416013806383067e+00 0 0 0
263 3 -7.4612540019516049e-01 -5.5347235061731226e-07 6.3101471967489253e+00 1.2847704529276971e+01 0 0 0
264 3 -7.4612508012697099e-01 -4.9334969531855677e-07 6.3101472400462697e+00 5.6714349232695263e+00 0 0 0
265 1 4.1878579442293812e-01 2.7323730726619910e+00 4.7326105428767988e+00 6.9446529520321398e+00 0 0 0
266 1 4.1878606600861618e-01 -2.3225175600659078e+01 5.5213789007415315e+00 1.1574485153671358e+01 1 0 0
267 1 4.1878574993491807e-01 2.7323730785156695e+00 6.3101471167480270e+00 2.3148207775920078e+00 0 0 0
268 2 1.0734646920661610e+00 2.7323730145470559e+00 4.7326105237218670e+00 -9.5388466476720168e-05 0 0 0
269 2 1.0734643139198818e+00 -2.3225175678028180e+01 5.5213786826144897e+00 4.6297362522399403e+00 1 0 0
270 2 1.0734646883442827e+00 2.7323731604649435e+00 6.3101471866627108e+00 9.2595697118701104e+00 0 0 0
271 3 -7.4612713828873245e-01 2.7323731235991939e+00 4.7326106120841054e+00 3.5880406718819380e+00 0 0 0
272 3 -7.4612710009708128e-01 2.7323731830523013e+00 4.7326105585014915e+00 1.0301265235311710e+01 0 0 0
273 3 -7.4612650591291729e-01 -2.3225175514295152e+01 5.5213789863771652e+00 8.2178709368573628e+00 1 0 0
274 3 -7.4612680371933948e-01 -2.3225175582135684e+01 5.5213791110918180e+00 1.0416013964845767e+00 1 0 0
275 3 -7.4612557497733845e-01 2.7323729909316672e+00 6.3101471986114035e+00 1.2847704505523499e+01 0 0 0
276 3 -7.4612623543587653e-01 2.7323730376354103e+00 6.3101472382107140e+00 5.6714349203607846e+00 0 0 0
277 1 4.1878547622678280e-01 -2.1858988834854348e+01 4.7326105478334952e+00 6.9446529636840886e+00 1 0 0
278 1 4.1878610710463871e-01 -2.0492802050035014e+01 5.5213788987988721e+00 1.1574485158956627e+01 1 0 0
279 1 4.1878563687349857e-01 -2.1858988829524151e+01 6.3101471258345683e+00 2.3148207757896877e+00 1 0 0
280 2 1.0734646563814203e+00 -2.1858988895883058e+01 4.7326105382346491e+00 -9.5401603136480162e-05 1 0 0
281 2 1.0734643693752139e+00 -2.0492802090768780e+01 5.5213787031886987e+00 4.6297362597952230e+00 1 0 0
282 2 1.0734645411500907e+00 -2.1858988736138485e+01 6.3101471887449705e+00 9.2595697264876620e+00 1 0 0