LAMMPS data file via write_data, version 14 May 2016, timestep = 72

960 atoms
4 atom types

4.2887209328638909e-01 2.2750332847513590e+01 xlo xhi
4.1317040390437793e-01 2.0091966390195626e+01 ylo yhi
5.6201892217525573e-01 1.8710012772124745e+01 zlo zhi
1.0494898413779296e+01 1.0668859261982872e+01 6.7881573643516306e+00 xy xz yz

Masses

1 6.941
2 54.94
3 58.933
4 16

Atoms # charge

1 1 4.0113814862127328e-01 2.5395798980935378e+01 3.7215383006569973e+00 2.8305148327928307e+00 -1 0 0
2 1 4.0113659129615231e-01 5.7415547008005161e+00 5.4185703112356780e+00 7.3675204589919581e+00 0 0 0
3 1 4.0113629613583429e-01 8.4087732359718519e+00 7.1156141567935167e+00 1.1904514927977239e+01 0 0 0
4 1 4.0113724349365992e-01 3.3397447241039018e+01 8.8126611308124847e+00 1.6441516835559952e+01 -1 0 0
5 1 4.0113771573643464e-01 5.6980646659912102e+00 8.6412380445531358e+00 2.8305058194126365e+00 0 0 0
6 1 4.0113836120489627e-01 3.0686744086174802e+01 1.0338283449287148e+01 7.3675194382201239e+00 -1 0 0
7 1 4.0113735002740813e-01 3.3353956695272245e+01 1.2035317919128266e+01 1.1904516455314036e+01 -1 0 0
8 1 4.0113765161804293e-01 3.6021168670064135e+01 1.3732355436681075e+01 1.6441514000502394e+01 -1 0 0
9 1 4.0113571922035607e-01 3.0643253128089036e+01 1.3560944746132169e+01 2.8305159271924065e+00 -1 0 0
10 1 4.0113699081308396e-01 3.3310467683179567e+01 1.5257986566710301e+01 7.3675235479932981e+00 -1 0 0
11 1 4.0113896994198861e-01 1.3656218387337846e+01 1.6955013421340201e+01 1.1904509976811207e+01 0 0 0
12 1 4.0113890141571351e-01 3.8644894537029870e+01 1.8652058533743006e+01 1.6441522537915734e+01 -1 0 0
13 1 4.0113659961365372e-01 1.0945515450408502e+01 1.8480633322894597e+01 2.8305197889518916e+00 0 0 0
14 1 4.0113570295137135e-01 3.5934189342971152e+01 2.0177678118906947e+01 7.3675251235636887e+00 -1 0 0
15 1 4.0113727164584517e-01 1.6279944775660042e+01 2.1874715710352433e+01 1.1904511333368596e+01 0 0 0
16 1 4.0113789005688383e-01 4.1268622309460660e+01 2.3571755854617997e+01 1.6441524104718948e+01 -1 0 0
17 1 4.0113721491687154e-01 8.6547058618857786e+00 3.7215383190281970e+00 2.8305176031040657e+00 0 0 0
18 1 4.0113604731022257e-01 1.1321918391155160e+01 5.4185723334793821e+00 7.3675216301406987e+00 0 0 0
19 1 4.0113606284529718e-01 1.3989134060204494e+01 7.1156189666222751e+00 1.1904518853282994e+01 0 0 0
20 1 4.0113712852632810e-01 1.6656348828301919e+01 8.8126615951078140e+00 1.6441515374224235e+01 0 0 0
21 1 4.0113551748863252e-01 1.1278431159243684e+01 8.6412367059380806e+00 2.8305098038643846e+00 0 0 0
22 1 4.0113827272430708e-01 1.3945645563801810e+01 1.0338283065306475e+01 7.3675214684038481e+00 0 0 0
23 1 4.0113730829259631e-01 1.6612861340478926e+01 1.2035319709090794e+01 1.1904517227661737e+01 0 0 0
24 1 4.0113664911482533e-01 1.9280076554613633e+01 1.3732352372045121e+01 1.6441506003425193e+01 0 0 0
25 1 4.0113494707796771e-01 1.3902152837325438e+01 1.3560940045307341e+01 2.8305175902603832e+00 0 0 0
26 1 4.0113719646307083e-01 1.6569370864980687e+01 1.5257980652782486e+01 7.3675249131998388e+00 0 0 0
27 1 4.0113852248061072e-01 1.9236584735828394e+01 1.6955010990854237e+01 1.1904511824697247e+01 0 0 0
28 1 4.0113617658028095e-01 2.1903798327102511e+01 1.8652053740200071e+01 1.6441516562091852e+01 0 0 0
29 1 4.0113732230044641e-01 1.6525880615392825e+01 1.8480635173885496e+01 2.8305171390537716e+00 0 0 0
30 1 4.0113552730983726e-01 1.9193096471503249e+01 2.0177683399081413e+01 7.3675252923521750e+00 0 0 0
31 1 4.0113707270113236e-01 2.1860308858010480e+01 2.1874723928649331e+01 1.1904514291661103e+01 0 0 0
32 1 4.0113692496809000e-01 2.4527522720206949e+01 2.3571759724668386e+01 1.6441521553261868e+01 0 0 0
33 1 4.0113887764726280e-01 1.4235069134419101e+01 3.7215406936492563e+00 2.8305194800120126e+00 0 0 0
34 1 4.0113945917478427e-01 1.6902285656929031e+01 5.4185740128958599e+00 7.3675182772781209e+00 0 0 0
35 1 4.0113652524797588e-01 1.9569502220038803e+01 7.1156207286438722e+00 1.1904517258619583e+01 0 0 0
36 1 4.0113808106065152e-01 2.2236717031390203e+01 8.8126652618300216e+00 1.6441518632227641e+01 0 0 0
37 1 4.0113813929208059e-01 1.6858799073792536e+01 8.6412400750849585e+00 2.8305096215637877e+00 0 0 0
38 1 4.0113894622041285e-01 1.9526016011563531e+01 1.0338282076407900e+01 7.3675146332937409e+00 0 0 0
39 1 4.0113725288697138e-01 2.2193228363124238e+01 1.2035322301788108e+01 1.1904515833863696e+01 0 0 0
40 1 4.0113574310325739e-01 2.4860441213966752e+01 1.3732356895600859e+01 1.6441510839162341e+01 0 0 0
41 1 4.0113675751903871e-01 1.9482526213024595e+01 1.3560933620857268e+01 2.8305112475117213e+00 0 0 0
42 1 4.0113738285410638e-01 2.2149738799554001e+01 1.5257975667765782e+01 7.3675147243779220e+00 0 0 0
43 1 4.0113898356225036e-01 2.4816950543972002e+01 1.6955005177642658e+01 1.1904504827525429e+01 0 0 0
44 1 4.0113734064461515e-01 2.7484165841044035e+01 1.8652048739654305e+01 1.6441517233249829e+01 0 0 0
45 1 4.0113827171068034e-01 2.2106248574868864e+01 1.8480626939560050e+01 2.8305158741461711e+00 0 0 0
46 1 4.0113850202581319e-01 2.4773460142157976e+01 2.0177673880116814e+01 7.3675156003506874e+00 0 0 0
47 1 4.0113823080194216e-01 2.7440677890494978e+01 2.1874716004186414e+01 1.1904506542862858e+01 0 0 0
48 1 4.0113889436128919e-01 3.0107893662065056e+01 2.3571751213229064e+01 1.6441519250339862e+01 0 0 0
49 1 4.0113856165323303e-01 1.9815441161911053e+01 3.7215390217344400e+00 2.8305153328098975e+00 0 0 0
50 1 4.0113599074795286e-01 2.2482652692949710e+01 5.4185731866118196e+00 7.3675173227020174e+00 0 0 0
51 1 4.0113536277596967e-01 2.5149867667428115e+01 7.1156127804822020e+00 1.1904510599238140e+01 0 0 0
52 1 4.0113721268639152e-01 2.7817084818765569e+01 8.8126592821787764e+00 1.6441516070065834e+01 0 0 0
53 1 4.0113677655468932e-01 2.2439164852127504e+01 8.6412379025335397e+00 2.8305067303782603e+00 0 0 0
54 1 4.0113747283097650e-01 2.5106376902423840e+01 1.0338281445977946e+01 7.3675151688517220e+00 0 0 0
55 1 4.0113626691877113e-01 2.7773594366889988e+01 1.2035320878899324e+01 1.1904514230895686e+01 0 0 0
56 1 4.0113543068656260e-01 3.0440810454632224e+01 1.3732357373680777e+01 1.6441513640971678e+01 0 0 0
57 1 4.0113578121692989e-01 2.5062887041499401e+01 1.3560937181568161e+01 2.8305103622830274e+00 0 0 0
58 1 4.0113723653464489e-01 2.7730103562296307e+01 1.5257982311869993e+01 7.3675209742312067e+00 0 0 0
59 1 4.0113691370764187e-01 3.0397318753032479e+01 1.6955010737562855e+01 1.1904507118367414e+01 0 0 0
60 1 4.0113663785917225e-01 3.3064532695703846e+01 1.8652054465255066e+01 1.6441520360992172e+01 0 0 0
61 1 4.0113794780555717e-01 2.7686614186904862e+01 1.8480628208384196e+01 2.8305145931637221e+00 0 0 0
62 1 4.0113619813535795e-01 3.0353829877214345e+01 2.0177676515860792e+01 7.3675209746592429e+00 0 0 0
63 1 4.0113536726701254e-01 3.3021041257201823e+01 2.1874710618339378e+01 1.1904507152786000e+01 0 0 0
64 1 4.0113809062373995e-01 3.5688257060689708e+01 2.3571745495669457e+01 1.6441519112128091e+01 0 0 0
65 1 4.1757631640186271e-01 1.5199776644530262e+01 9.6611755890910018e+00 1.8710012284752036e+01 0 0 -1
66 1 4.1757659314713791e-01 7.1981348307837276e+00 4.5700554035356236e+00 5.0990212005176900e+00 0 0 0
67 1 4.1757395641423906e-01 9.8653482595463551e+00 6.2670921181249799e+00 9.6360168078640545e+00 0 0 0
68 1 4.1757414520811587e-01 1.2532562562504072e+01 7.9641342640005028e+00 1.4173014172406727e+01 0 0 0
69 1 4.1757822589245575e-01 7.1546458708766023e+00 7.7927193106655892e+00 5.6201973664038252e-01 0 0 0
70 1 4.1757617702901251e-01 9.8218605700979484e+00 9.4897576853540073e+00 5.0990156239441422e+00 0 0 0
71 1 4.1757614454911657e-01 1.2489069865861509e+01 1.1186797104515207e+01 9.6360154493356500e+00 0 0 0
72 1 4.1757813110311548e-01 1.5156286865089088e+01 1.2883834096025495e+01 1.4173014893684750e+01 0 0 0
73 1 4.1757431197585204e-01 9.7783689762503574e+00 1.2712415748925698e+01 5.6202270573989821e-01 0 0 0
74 1 4.1757500367914963e-01 1.2445579857983400e+01 1.4409454279673067e+01 5.0990159192364750e+00 0 0 0
75 1 4.1757717652495252e-01 1.5112794118280403e+01 1.6106494123280449e+01 9.6360143711631885e+00 0 0 0
76 1 4.1757872292775966e-01 1.7780012807710150e+01 1.7803532065696682e+01 1.4173016742209839e+01 0 0 0
77 1 4.1757405830336330e-01 1.2402089922742745e+01 1.7632112093912113e+01 5.6201979508944666e-01 0 0 0
78 1 4.1757644370182517e-01 1.5069303082775361e+01 1.9329153632809181e+01 5.0990194090540113e+00 0 0 0
79 1 4.1757552404902115e-01 1.7736520800742635e+01 2.1026196257191998e+01 9.6360141033075593e+00 0 0 0
80 1 4.1757477016956551e-01 2.0403736440284209e+01 2.2723233939080952e+01 1.4173014396878564e+01 0 0 0
81 1 4.1757665170591701e-01 2.0780141763273647e+01 9.6611796225671558e+00 1.8710012602645492e+01 0 0 -1
82 1 4.1757575336974800e-01 1.2778491871888582e+01 4.5700610697099231e+00 5.0990195087266423e+00 0 0 0
83 1 4.1757818772770289e-01 1.5445707560353567e+01 6.2670979911977813e+00 9.6360181950796076e+00 0 0 0
84 1 4.1757745796630114e-01 1.8112925947789506e+01 7.9641376320730402e+00 1.4173014168151779e+01 0 0 0
85 1 4.1757426484586374e-01 2.3403863323277076e+01 1.4580880566791244e+01 1.8710011936664564e+01 0 0 -1
86 1 4.1757809301163179e-01 1.5402216819139158e+01 9.4897628952351258e+00 5.0990143561634849e+00 0 0 0
87 1 4.1757744783247597e-01 1.8069434863947212e+01 1.1186800199829346e+01 9.6360171899892890e+00 0 0 0
88 1 4.1757479132838726e-01 2.0736650764130069e+01 1.2883838505937629e+01 1.4173015320350364e+01 0 0 0
89 1 4.1757627176560880e-01 1.5358727382139049e+01 1.2712419001449932e+01 5.6202106515836958e-01 0 0 0
90 1 4.1757799705505860e-01 1.8025946507375242e+01 1.4409457170169777e+01 5.0990159245172872e+00 0 0 0
91 1 4.1757562515235286e-01 2.0693159768773032e+01 1.6106496342643545e+01 9.6360152235138123e+00 0 0 0
92 1 4.1757574621707605e-01 2.3360372061915275e+01 1.7803535773882846e+01 1.4173017828160781e+01 0 0 0
93 1 4.1757788099779414e-01 2.8651315257728076e+01 2.4420274273940773e+01 1.8710012225687485e+01 0 0 -1
94 1 4.1757585092060279e-01 2.0649671072908021e+01 1.9329158776390901e+01 5.0990181183001910e+00 0 0 0
95 1 4.1757608641502170e-01 2.3316881155589517e+01 2.1026202559454962e+01 9.6360133174246201e+00 0 0 0
96 1 4.1757928648562997e-01 2.5984097082653058e+01 2.2723241334373260e+01 1.4173014150017325e+01 0 0 0
97 1 4.1757721157515465e-01 2.6360505668714435e+01 9.6611756153099666e+00 1.8710010481067510e+01 0 0 -1
98 1 4.1757838831361871e-01 1.8358865560903904e+01 4.5700556579134268e+00 5.0990190764891992e+00 0 0 0
99 1 4.1757544104762712e-01 2.1026081174740668e+01 6.2670908358708761e+00 9.6360168284079659e+00 0 0 0
100 1 4.1757563124582048e-01 2.3693291647294288e+01 7.9641345488590929e+00 1.4173012002691767e+01 0 0 0
101 1 4.1757580483563772e-01 2.8984234186228985e+01 1.4580877318909025e+01 1.8710010031203069e+01 0 0 -1
102 1 4.1757541323176695e-01 2.0982591850341112e+01 9.4897588085480216e+00 5.0990144285303467e+00 0 0 0
103 1 4.1757532298568645e-01 2.3649802208301338e+01 1.1186796454102023e+01 9.6360156533788857e+00 0 0 0
104 1 4.1757524940724716e-01 2.6317015449972839e+01 1.2883836756038381e+01 1.4173014105107226e+01 0 0 0
105 1 4.1757354885569753e-01 2.0939101524461670e+01 1.2712415574522042e+01 5.6201970870476747e-01 0 0 0
106 1 4.1757441492773617e-01 2.3606313667545848e+01 1.4409454761239449e+01 5.0990148327637925e+00 0 0 0
107 1 4.1757538815016654e-01 2.6273529062337591e+01 1.6106492174017667e+01 9.6360153044803383e+00 0 0 0
108 1 4.1757694212876606e-01 2.8940745063537666e+01 1.7803531896679196e+01 1.4173015209800493e+01 0 0 0
109 1 4.1757650789565126e-01 3.4231680975946801e+01 2.4420267750443951e+01 1.8710012294583709e+01 0 0 -1
110 1 4.1757816450798602e-01 2.6230036148071218e+01 1.9329152925129453e+01 5.0990177894109507e+00 0 0 0
111 1 4.1757644883431028e-01 2.8897257024845999e+01 2.1026194486667681e+01 9.6360147283763062e+00 0 0 0
112 1 4.1757637283075982e-01 3.1564469481964718e+01 2.2723233133623712e+01 1.4173011932117289e+01 0 0 0
113 1 4.1757536912798393e-01 3.1940873499006617e+01 9.6611793075150985e+00 1.8710011431527608e+01 0 0 -1
114 1 4.1757484057301941e-01 2.3939224283055303e+01 4.5700601114676696e+00 5.0990207021123473e+00 0 0 0
115 1 4.1757555960588172e-01 2.6606438631052207e+01 6.2670973329799420e+00 9.6360164707237601e+00 0 0 0
116 1 4.1757623900741514e-01 2.9273657207657383e+01 7.9641393273273735e+00 1.4173012105025228e+01 0 0 0
117 1 4.1757437493638805e-01 3.4564593633115230e+01 1.4580881759994142e+01 1.8710012625643010e+01 0 0 -1
118 1 4.1757736722420224e-01 2.6562949335517057e+01 9.4897628526754030e+00 5.0990160275845424e+00 0 0 0
119 1 4.1757660114314649e-01 2.9230165406349645e+01 1.1186802805802884e+01 9.6360158064347186e+00 0 0 0
120 1 4.1757412187448645e-01 3.1897380248284360e+01 1.2883841259342997e+01 1.4173014155411764e+01 0 0 0
121 1 4.1757658952465554e-01 2.6519459117619984e+01 1.2712420592831444e+01 5.6202068780626635e-01 0 0 0
122 1 4.1757744079996212e-01 2.9186679939294120e+01 1.4409457938271283e+01 5.0990150352807042e+00 0 0 0
123 1 4.1757560632602969e-01 3.1853892485381550e+01 1.6106499186983921e+01 9.6360140619444827e+00 0 0 0
124 1 4.1757669649099571e-01 3.4521102247537250e+01 1.7803540722196729e+01 1.4173014910279743e+01 0 0 0
125 1 4.1757664481965245e-01 3.9812046516016146e+01 2.4420271063535779e+01 1.8710012439847823e+01 0 0 -1
126 1 4.1757496369544317e-01 3.1810402196417126e+01 1.9329154560917505e+01 5.0990186092805292e+00 0 0 0
127 1 4.1757414082953787e-01 3.4477612541773716e+01 2.1026199873157285e+01 9.6360141817914382e+00 0 0 0
128 1 4.1757766330631307e-01 3.7144826404808320e+01 2.2723238795568793e+01 1.4173012212907301e+01 0 0 0
129 1 4.0050359144822700e-01 4.5526569101616001e+00 1.2616957554754049e+00 2.8305259825207303e+00 0 0 0
130 1 4.0050160997976314e-01 7.2198730527886896e+00 2.9587396186080230e+00 7.3675355306626038e+00 0 0 0
131 1 4.0050159632277571e-01 9.8870875628531838e+00 4.6557785646157228e+00 1.1904525994368170e+01 0 0 0
132 1 4.0050227515164316e-01 1.2554300992928134e+01 6.3528168139674284e+00 1.6441527964598407e+01 0 0 0
133 1 4.0050338569956401e-01 7.1763877762112971e+00 6.1813866376203563e+00 2.8305101994807713e+00 0 0 0
134 1 4.0050230581541130e-01 9.8436009864544722e+00 7.8784293989284331e+00 7.3675241396503344e+00 0 0 0
135 1 4.0050223689574505e-01 1.2510812244812767e+01 9.5754744312350617e+00 1.1904528149821530e+01 0 0 0
136 1 4.0050374720140913e-01 1.5178027685983107e+01 1.1272506871847582e+01 1.6441513272082776e+01 0 0 0
137 1 4.0050094231399386e-01 9.8001136978943109e+00 1.1101088696275424e+01 2.8305094606620536e+00 0 0 0
138 1 4.0050252328996983e-01 1.2467322841315465e+01 1.2798139905212569e+01 7.3675305639137996e+00 0 0 0
139 1 4.0050418383518765e-01 1.5134540800348200e+01 1.4495166605922122e+01 1.1904513143783497e+01 0 0 0
140 1 4.0050449074489319e-01 1.7801756033620382e+01 1.6192204434759340e+01 1.6441511727742153e+01 0 0 0
141 1 4.0050113905798534e-01 1.2423828857155424e+01 1.6020797606428296e+01 2.8305323871205315e+00 0 0 0
142 1 4.0050307333019897e-01 1.5091043694494196e+01 1.7717838636759176e+01 7.3675356095378186e+00 0 0 0
143 1 4.0050434072332519e-01 1.7758260522601905e+01 1.9414875606116393e+01 1.1904524045301788e+01 0 0 0
144 1 4.0050248431175067e-01 2.0425475054732299e+01 2.1111916023446835e+01 1.6441533683384790e+01 0 0 0
145 1 4.0050357387131147e-01 2.0627925908726471e+01 2.0940486111873064e+01 2.8305196657078060e+00 0 -1 0
146 1 4.0050260707990659e-01 2.3295136226745313e+01 2.2637525329229902e+01 7.3675178113772777e+00 0 -1 0
147 1 4.0050322594246412e-01 1.5467453298881749e+01 4.6557704430696791e+00 1.1904513509814491e+01 0 0 0
148 1 4.0050404067536377e-01 1.8134668767711791e+01 6.3528101790345763e+00 1.6441517244646167e+01 0 0 0
149 1 4.0050239115913044e-01 1.2756751891829238e+01 6.1813855392450456e+00 2.8305077663478126e+00 0 0 0
150 1 4.0050502226006568e-01 1.5423964663034868e+01 7.8784251424858347e+00 7.3675149360827836e+00 0 0 0
151 1 4.0050343413963196e-01 1.8091179425106194e+01 9.5754712161415654e+00 1.1904520662859850e+01 0 0 0
152 1 4.0050305916014700e-01 2.0758397237957169e+01 1.1272504654420025e+01 1.6441506124777003e+01 0 0 0
153 1 4.0050305715422335e-01 1.5380478831101442e+01 1.1101081382587356e+01 2.8305029813995497e+00 0 0 0
154 1 4.0050438587571668e-01 1.8047693144092229e+01 1.2798127893392127e+01 7.3675165434555492e+00 0 0 0
155 1 4.0050380131364804e-01 2.0714907940801329e+01 1.4495158838027519e+01 1.1904504957293046e+01 0 0 0
156 1 4.0050248811695793e-01 2.3382123248639463e+01 1.6192193391343199e+01 1.6441500060426414e+01 0 0 0
157 1 4.0050422254950113e-01 1.8004204633359301e+01 1.6020785124487098e+01 2.8305165198959830e+00 0 0 0
158 1 4.0050322987584130e-01 2.0671418421217961e+01 1.7717825532276802e+01 7.3675149906874617e+00 0 0 0
159 1 4.0050464653893630e-01 2.3338628486414269e+01 1.9414862076863532e+01 1.1904507994794567e+01 0 0 0
160 1 4.0050388625717165e-01 2.6005842018869750e+01 2.1111903017703778e+01 1.6441518700271168e+01 0 0 0
161 1 4.0050483994000879e-01 2.6208289024805669e+01 2.0940488799771597e+01 2.8305261070296348e+00 0 -1 0
162 1 4.0050367871425196e-01 2.8875506248533206e+01 2.2637528394662631e+01 7.3675278212406798e+00 0 -1 0
163 1 4.0050081620883010e-01 2.1047823583060097e+01 4.6557695422188168e+00 1.1904515222870122e+01 0 0 0
164 1 4.0050359488876625e-01 3.4209934625053670e+01 2.6031607581216445e+01 1.6441525891562069e+01 0 -1 0
165 1 4.0050504558251110e-01 1.8337121944027174e+01 6.1813923005201570e+00 2.8305139785964744e+00 0 0 0
166 1 4.0050347201171399e-01 2.1004334659878850e+01 7.8784287005427638e+00 7.3675181334323545e+00 0 0 0
167 1 4.0050230361414435e-01 2.3671544799734349e+01 9.5754760419323581e+00 1.1904524388078169e+01 0 0 0
168 1 4.0050318800034912e-01 2.6338759143241983e+01 1.1272516287286301e+01 1.6441522446236906e+01 0 0 0
169 1 4.0050202452296735e-01 2.0960849739454364e+01 1.1101082424958124e+01 2.8305035519245441e+00 0 0 0
170 1 4.0050268760655289e-01 2.3628056222153905e+01 1.2798131575443048e+01 7.3675194027251978e+00 0 0 0
171 1 4.0050287241354182e-01 2.6295271132500350e+01 1.4495166284882849e+01 1.1904514800105908e+01 0 0 0
172 1 4.0050271475346394e-01 2.8962487366111628e+01 1.6192206302335343e+01 1.6441518912423927e+01 0 0 0
173 1 4.0050190826718218e-01 2.3584569467338543e+01 1.6020785200788254e+01 2.8305183744872142e+00 0 0 0
174 1 4.0050382902914106e-01 2.6251781733488588e+01 1.7717829244100365e+01 7.3675221879467427e+00 0 0 0
175 1 4.0050271248499941e-01 2.8919000607416777e+01 1.9414864727922595e+01 1.1904510561859375e+01 0 0 0
176 1 4.0050254060404000e-01 3.1586211833722455e+01 2.1111905758511501e+01 1.6441526262355541e+01 0 0 0
177 1 4.0050352355339375e-01 3.1788661995914094e+01 2.0940480461314891e+01 2.8305114534999860e+00 0 -1 0
178 1 4.0050121600657013e-01 3.4455870855484974e+01 2.2637523791958358e+01 7.3675193740924021e+00 0 -1 0
179 1 4.0050193819739999e-01 3.7123090799385622e+01 2.4334553963858060e+01 1.1904498307755317e+01 0 -1 0
180 1 4.0050403745769297e-01 3.9790306378144678e+01 2.6031599101515187e+01 1.6441511429762546e+01 0 -1 0
181 1 4.0050282557601691e-01 2.3917484304919753e+01 6.1813835477527617e+00 2.8305027281680450e+00 0 0 0
182 1 4.0050302569326529e-01 2.6584697288514921e+01 7.8784205868907460e+00 7.3675096752050626e+00 0 0 0
183 1 4.0050276483766023e-01 2.9251916165193617e+01 9.5754629553381907e+00 1.1904509598904868e+01 0 0 0
184 1 4.0050236573835740e-01 3.1919128765822141e+01 1.1272505146863702e+01 1.6441510628069711e+01 0 0 0
185 1 4.0050240625304379e-01 2.6541208864376074e+01 1.1101081242766689e+01 2.8304983590445509e+00 0 0 0
186 1 4.0050292294779682e-01 2.9208423561035634e+01 1.2798132288808020e+01 7.3675193603023850e+00 0 0 0
187 1 4.0050204378123472e-01 3.1875638040298927e+01 1.4495161598907634e+01 1.1904506949645864e+01 0 0 0
188 1 4.0050271561958567e-01 3.4542851333808699e+01 1.6192203964961653e+01 1.6441513440785393e+01 0 0 0
189 1 4.0050299636850611e-01 2.9164935710502373e+01 1.6020785622028573e+01 2.8305151868726233e+00 0 0 0
190 1 4.0050194826903135e-01 3.1832149858595290e+01 1.7717829551759873e+01 7.3675209944517048e+00 0 0 0
191 1 4.0050222411720870e-01 3.4499362003710409e+01 1.9414862380379287e+01 1.1904504674259378e+01 0 0 0
192 1 4.0050418897173690e-01 3.7166574912508906e+01 2.1111903561892934e+01 1.6441520073974118e+01 0 0 0
193 2 1.0951888839345048e+00 2.4062174618895959e+01 2.8730009390929863e+00 5.6204135292808777e-01 -1 0 0
194 2 1.0951892450176857e+00 2.6729404516967900e+01 4.5700374339493326e+00 5.0990611719514440e+00 -1 0 0
195 2 1.0951888500402409e+00 7.0751693895539987e+00 6.2670914473369006e+00 9.6360195301196150e+00 0 0 0
196 2 1.0951887751915543e+00 9.7423745361550615e+00 7.9641237042496957e+00 1.4173013991816134e+01 0 0 0
197 2 1.0951885883093369e+00 2.6685885819895315e+01 7.7927068046069810e+00 5.6205636595585917e-01 -1 0 0
198 2 1.0951893577329039e+00 7.0316833372942735e+00 9.4897636018948557e+00 5.0990203711549018e+00 0 0 0
199 2 1.0951890242384463e+00 9.6988992438898673e+00 1.1186802575292322e+01 9.6360012297300717e+00 0 0 0
200 2 1.0951887239301530e+00 3.4687541091309726e+01 1.2883828733720156e+01 1.4173020695195708e+01 -1 0 0
201 2 1.0951885976035780e+00 6.9882145604127599e+00 1.2712403902701977e+01 5.6205019754373631e-01 0 0 0
202 2 1.0951883782373226e+00 9.6553974914110121e+00 1.4409443733469079e+01 5.0990144286181156e+00 0 0 0
203 2 1.0951889495689637e+00 3.4644042214447474e+01 1.6106498194178243e+01 9.6360011079678785e+00 -1 0 0
204 2 1.0951897155085002e+00 3.7311273493508608e+01 1.7803540136040890e+01 1.4173014592572589e+01 -1 0 0
205 2 1.0951889769770544e+00 2.0280798287753260e+01 2.4420271612748184e+01 1.8710000297169834e+01 0 0 -1
206 2 1.0951884350386314e+00 3.4600577403461266e+01 1.9329149833521633e+01 5.0990202824596782e+00 -1 0 0
207 2 1.0951885048279324e+00 3.7267789193141716e+01 2.1026226350189777e+01 9.6359839414589032e+00 -1 0 0
208 2 1.0951894130499082e+00 1.7613578614074857e+01 2.2723262627731945e+01 1.4172979029882294e+01 0 0 0
209 2 1.0951875278473509e+00 7.3211038959075356e+00 2.8730047283173166e+00 5.6203777597008397e-01 0 0 0
210 2 1.0951873288030582e+00 9.9883231388097489e+00 4.5700554595030880e+00 5.0990367266053278e+00 0 0 0
211 2 1.0951870212633008e+00 1.2655508609810690e+01 6.2670790276009036e+00 9.6360311999828152e+00 0 0 0
212 2 1.0951872264375091e+00 1.5322724608622597e+01 7.9641088040364671e+00 1.4173034820593291e+01 0 0 0
213 2 1.0951869708407940e+00 9.9448578303612187e+00 7.7927310985336034e+00 5.6203300160403480e-01 0 0 0
214 2 1.0951874329458777e+00 1.2612008579968883e+01 9.4897658938963385e+00 5.0990017456940544e+00 0 0 0
215 2 1.0951876522147781e+00 1.5279259307908237e+01 1.1186790552337829e+01 9.6360194879696142e+00 0 0 0
216 2 1.0951873809313954e+00 1.7946516072013321e+01 1.2883839944817471e+01 1.4173013569147352e+01 0 0 0
217 2 1.0951864028331328e+00 1.2568538127784725e+01 1.2712393351382341e+01 5.6205477919109603e-01 0 0 0
218 2 1.0951874323189310e+00 1.5235718348844934e+01 1.4409431811959887e+01 5.0990268731052106e+00 0 0 0
219 2 1.0951876012125172e+00 1.7902984830643671e+01 1.6106499494208840e+01 9.6360010487696570e+00 0 0 0
220 2 1.0951874192991455e+00 2.0570243694541237e+01 1.7803534116162467e+01 1.4173032198551661e+01 0 0 0
221 2 1.0951873276037967e+00 2.5861118452240756e+01 2.4420265664423614e+01 1.8710008591155589e+01 0 0 -1
222 2 1.0951876250311816e+00 1.7859501525423642e+01 1.9329160938444716e+01 5.0990143527740637e+00 0 0 0
223 2 1.0951867522250107e+00 2.0526718172863536e+01 2.1026234321180688e+01 9.6359782834842758e+00 0 0 0
224 2 1.0951873590032757e+00 2.3193916343350647e+01 2.2723238035537580e+01 1.4173014804868036e+01 0 0 0
225 2 1.0951887186048701e+00 2.3570305424221054e+01 9.6611806743628534e+00 1.8710002987031420e+01 0 0 -1
226 2 1.0951894122032333e+00 1.5568643790232363e+01 4.5700544634692832e+00 5.0990283011369906e+00 0 0 0
227 2 1.0951888405567916e+00 1.8235931181731114e+01 6.2670876834510842e+00 9.6360317390675405e+00 0 0 0
228 2 1.0951882442125764e+00 2.0903120557615988e+01 7.9641365430067399e+00 1.4172995961819762e+01 0 0 0
229 2 1.0951885853240444e+00 2.6194023116844278e+01 1.4580896605808485e+01 1.8709991033267549e+01 0 0 -1
230 2 1.0951894938069517e+00 1.8192424076641444e+01 9.4897846457433808e+00 5.0989861297897141e+00 0 0 0
231 2 1.0951891692983069e+00 2.0859663042946661e+01 1.1186805326896106e+01 9.6360013611313047e+00 0 0 0
232 2 1.0951884229641471e+00 2.3526871197992019e+01 1.2883847727384584e+01 1.4173004290067290e+01 0 0 0
233 2 1.0951886279142715e+00 1.8148927955645153e+01 1.2712415400862280e+01 5.6202097676806329e-01 0 0 0
234 2 1.0951887921380512e+00 2.0816143846119790e+01 1.4409457728446919e+01 5.0990052179023335e+00 0 0 0
235 2 1.0951894018868786e+00 2.3483354605855641e+01 1.6106494078099214e+01 9.6360099981161795e+00 0 0 0
236 2 1.0951897250805906e+00 2.6150582746937918e+01 1.7803524662082754e+01 1.4173035402779425e+01 0 0 0
237 2 1.0951889217376214e+00 3.1441510743521103e+01 2.4420277495648030e+01 1.8709989777941104e+01 0 0 -1
238 2 1.0951887995641967e+00 2.3439839816760394e+01 1.9329166209147385e+01 5.0990040489797517e+00 0 0 0
239 2 1.0951890680857583e+00 2.6107084324868129e+01 2.1026213750688445e+01 9.6360092005619862e+00 0 0 0
240 2 1.0951891919862475e+00 2.8774326115964222e+01 2.2723265488937290e+01 1.4172981999146460e+01 0 0 0
241 2 1.0951875928033465e+00 2.9150688279023075e+01 9.6611883948123953e+00 1.8709989881310005e+01 0 0 -1
242 2 1.0951874657726541e+00 2.1149083807248843e+01 4.5700587288957850e+00 5.0990376016357111e+00 0 0 0
243 2 1.0951866898223555e+00 2.3816259463810077e+01 6.2670905999792481e+00 9.6360219848603137e+00 0 0 0
244 2 1.0951870112005941e+00 2.6483452073677686e+01 7.9641416663854647e+00 1.4172990660952957e+01 0 0 0
245 2 1.0951869993346306e+00 3.1774419154324306e+01 1.4580909667964452e+01 1.8709981757771960e+01 0 0 -1
246 2 1.0951877262332141e+00 2.3772769069860736e+01 9.4897723610481162e+00 5.0990052176753053e+00 0 0 0
247 2 1.0951875395310366e+00 2.6440001387196485e+01 1.1186806995207078e+01 9.6360005256682797e+00 0 0 0
248 2 1.0951871046884036e+00 2.9107231244431578e+01 1.2883866771339179e+01 1.4172974399677077e+01 0 0 0
249 2 1.0951870293823283e+00 2.3729249031799082e+01 1.2712404750681770e+01 5.6203656510512212e-01 0 0 0
250 2 1.0951879841231704e+00 2.6396467880318429e+01 1.4409436805280338e+01 5.0990296426262320e+00 0 0 0
251 2 1.0951875461508296e+00 2.9063709851461596e+01 1.6106482525846026e+01 9.6360273566710557e+00 0 0 0
252 2 1.0951876828562588e+00 3.1730935552204851e+01 1.7803554453030223e+01 1.4172997802350359e+01 0 0 0
253 2 1.0951877720385159e+00 3.7021842995647326e+01 2.4420267698171227e+01 1.8710001804402484e+01 0 0 -1
254 2 1.0951877124568274e+00 2.9020237148801534e+01 1.9329154625067254e+01 5.0990214969165519e+00 0 0 0
255 2 1.0951865846009756e+00 3.1687451165143468e+01 2.1026213996892114e+01 9.6360131293978988e+00 0 0 0
256 2 1.0951874430966477e+00 3.4354626379134714e+01 2.2723263332753572e+01 1.4172972229345234e+01 0 0 0
257 2 1.0941016734655633e+00 2.4382825828686581e+01 2.6880107290664657e+01 1.8710005245466849e+01 0 -1 -1
258 2 1.0941019894469342e+00 1.6381194525000531e+01 2.1789008638819002e+01 5.0990273594404814e+00 0 -1 0
259 2 1.0941012747266947e+00 8.5535400081313195e+00 3.8072650235364582e+00 9.6359858319683553e+00 0 0 0
260 2 1.0941014914533702e+00 1.1220734730711081e+01 5.5042907279870397e+00 1.4172977807046717e+01 0 0 0
261 2 1.0941019789093320e+00 5.8427965629045406e+00 5.3328713632307405e+00 5.6202638084543655e-01 0 0 0
262 2 1.0941018907482498e+00 8.5100337545903120e+00 7.0299207951717495e+00 5.0990113706986717e+00 0 0 0
263 2 1.0941014388264494e+00 1.1177220962294117e+01 8.7269338976023594e+00 9.6360040529390556e+00 0 0 0
264 2 1.0941018016738597e+00 1.3844425635394884e+01 1.0423969961614610e+01 1.4173008877860001e+01 0 0 0
265 2 1.0941014488988050e+00 8.4665661248116439e+00 1.0252585925063649e+01 5.6201906853829531e-01 0 0 0
266 2 1.0941011506641440e+00 1.1133747257809969e+01 1.1949609608988146e+01 5.0989702079449195e+00 0 0 0
267 2 1.0941016777924535e+00 1.3800952001835025e+01 1.3646645592704457e+01 9.6359788314196582e+00 0 0 0
268 2 1.0941022353077285e+00 1.6468187385112888e+01 1.5343688963276747e+01 1.4173006869445446e+01 0 0 0
269 2 1.0941011207309210e+00 2.1759129808764310e+01 2.1960414635000500e+01 1.8710006307216378e+01 0 0 -1
270 2 1.0941019223860087e+00 1.3757460054450609e+01 1.6869305684048101e+01 5.0989799018598889e+00 0 0 0
271 2 1.0941021266341078e+00 1.6424702478651113e+01 1.8566373460216713e+01 9.6359623040982267e+00 0 0 0
272 2 1.0941019014098894e+00 1.9091945478424403e+01 2.0263409001771052e+01 1.4172986835211905e+01 0 0 0
273 2 1.0941019505366680e+00 1.9294302263858700e+01 2.0091956686896644e+01 5.6202722260195115e-01 0 -1 0
274 2 1.0941015402087764e+00 2.1961501985736849e+01 2.1789006805550709e+01 5.0990507003130343e+00 0 -1 0
275 2 1.0941016367588776e+00 2.4628703675410925e+01 2.3486042396075476e+01 9.6360523732894467e+00 0 -1 0
276 2 1.0941018051036804e+00 1.6801056617052822e+01 5.5042924467312488e+00 1.4173009463711452e+01 0 0 0
277 2 1.0941015776649727e+00 1.1423142762916619e+01 5.3328874539472082e+00 5.6202330659481969e-01 0 0 0
278 2 1.0941018826649378e+00 1.4090316430875589e+01 7.0299147571426595e+00 5.0990238680129103e+00 0 0 0
279 2 1.0941021500884545e+00 1.6757567148251262e+01 8.7269411096052387e+00 9.6360309200079151e+00 0 0 0
280 2 1.0941018073867770e+00 1.9424808723954978e+01 1.0423986162659828e+01 1.4173007183324492e+01 0 0 0
281 2 1.0941017331887390e+00 1.4046824316368696e+01 1.0252575772476485e+01 5.6203645097980282e-01 0 0 0
282 2 1.0941021353325635e+00 1.6714051787279228e+01 1.1949609887232580e+01 5.0990028721164951e+00 0 0 0
283 2 1.0941020279113174e+00 1.9381296561229234e+01 1.3646651690091462e+01 9.6360038428664190e+00 0 0 0
284 2 1.0941019068581832e+00 2.2048495446847657e+01 1.5343687970979373e+01 1.4173051971702947e+01 0 0 0
285 2 1.0941021672106483e+00 1.6670547696736620e+01 1.5172250791668828e+01 5.6204692515985000e-01 0 0 0