# LAMMPS data file written by Ovito Basic 3.0.0-dev791
960 atoms
4 atom types
0.0 23.1792049408 xlo xhi
0.0 20.5051367941 ylo yhi
0.0 19.2720316943 zlo zhi
10.9355942185 11.3296596604 7.2085975427 xy xz yz

Atoms  # charge

1 1 0.0 2.783156872 3.464216709 2.409003973
2 1 0.0 5.615571976 5.266366005 7.227011681
3 1 0.0 8.447986603 7.068515778 12.045020103
4 1 0.0 11.28040123 8.870664597 16.863027573
5 1 0.0 5.517055511 8.590500832 2.409003973
6 1 0.0 8.349470139 10.392650604 7.227011681
7 1 0.0 11.181884766 12.194799423 12.045020103
8 1 0.0 14.014300346 13.996949196 16.863027573
9 1 0.0 8.250953674 13.716784477 2.409003973
10 1 0.0 11.083368301 15.51893425 7.227011681
11 1 0.0 13.915782928 17.321083069 12.045020103
12 1 0.0 16.748199463 19.123233795 16.863027573
13 1 0.0 10.984852791 18.843069077 2.409003973
14 1 0.0 13.817268372 20.645217896 7.227011681
15 1 0.0 16.649682999 22.447366714 12.045020103
16 1 0.0 19.482097626 24.249515533 16.863027573
17 1 0.0 8.577958107 3.464216709 2.409003973
18 1 0.0 11.410373688 5.266366005 7.227011681
19 1 0.0 14.242788315 7.068515778 12.045020103
20 1 0.0 17.075202942 8.870664597 16.863027573
21 1 0.0 11.31185627 8.590500832 2.409003973
22 1 0.0 14.144271851 10.392650604 7.227011681
23 1 0.0 16.976686478 12.194799423 12.045020103
24 1 0.0 19.809101105 13.996949196 16.863027573
25 1 0.0 14.045754433 13.716784477 2.409003973
26 1 0.0 16.878170013 15.51893425 7.227011681
27 1 0.0 19.710584641 17.321083069 12.045020103
28 1 0.0 22.542999268 19.123233795 16.863027573
29 1 0.0 16.779655457 18.843069077 2.409003973
30 1 0.0 19.612070084 20.645217896 7.227011681
31 1 0.0 22.444484711 22.447366714 12.045020103
32 1 0.0 25.276899338 24.249515533 16.863027573
33 1 0.0 14.372758865 3.464216709 2.409003973
34 1 0.0 17.205173492 5.266366005 7.227011681
35 1 0.0 20.03758812 7.068515778 12.045020103
36 1 0.0 22.870002747 8.870664597 16.863027573
37 1 0.0 17.106658936 8.590500832 2.409003973
38 1 0.0 19.939073563 10.392650604 7.227011681
39 1 0.0 22.77148819 12.194799423 12.045020103
40 1 0.0 25.603902817 13.996949196 16.863027573
41 1 0.0 19.840557098 13.716784477 2.409003973
42 1 0.0 22.672971725 15.51893425 7.227011681
43 1 0.0 25.505386353 17.321083069 12.045020103
44 1 0.0 28.33780098 19.123233795 16.863027573
45 1 0.0 22.574457169 18.843069077 2.409003973
46 1 0.0 25.406871796 20.645217896 7.227011681
47 1 0.0 28.239286423 22.447366714 12.045020103
48 1 0.0 31.07170105 24.249515533 16.863027573
49 1 0.0 20.167560577 3.464216709 2.409003973
50 1 0.0 22.999975204 5.266366005 7.227011681
51 1 0.0 25.832389832 7.068515778 12.045020103
52 1 0.0 28.664804459 8.870664597 16.863027573
53 1 0.0 22.901460648 8.590500832 2.409003973
54 1 0.0 25.733875275 10.392650604 7.227011681
55 1 0.0 28.566289902 12.194799423 12.045020103
56 1 0.0 31.398704529 13.996949196 16.863027573
57 1 0.0 25.63535881 13.716784477 2.409003973
58 1 0.0 28.467773438 15.51893425 7.227011681
59 1 0.0 31.300188065 17.321083069 12.045020103
60 1 0.0 34.132602692 19.123233795 16.863027573
61 1 0.0 28.369256973 18.843069077 2.409003973
62 1 0.0 31.2016716 20.645217896 7.227011681
63 1 0.0 34.03408432 22.447366714 12.045020103
64 1 0.0 36.866500854 24.249515533 16.863027573
65 1 0.0 4.264349937 2.563142061 0.0
66 1 0.0 7.096764565 4.365291595 4.818007946
67 1 0.0 9.929180145 6.167440891 9.636015892
68 1 0.0 12.761594772 7.969590187 14.454023361
69 1 0.0 6.998249054 7.689426422 0.0
70 1 0.0 9.830663681 9.491576195 4.818007946
71 1 0.0 12.663078308 11.293725014 9.636015892
72 1 0.0 15.495493889 13.095874786 14.454023361
73 1 0.0 9.732147217 12.815710068 0.0
74 1 0.0 12.564561844 14.61785984 4.818007946
75 1 0.0 15.396976471 16.420009613 9.636015892
76 1 0.0 18.229393005 18.222158432 14.454023361
77 1 0.0 12.466046333 17.941993713 0.0
78 1 0.0 15.29846096 19.744142532 4.818007946
79 1 0.0 18.130876541 21.546293259 9.636015892
80 1 0.0 20.963291168 23.348442078 14.454023361
81 1 0.0 10.059150696 2.563142061 0.0
82 1 0.0 12.891565323 4.365291595 4.818007946
83 1 0.0 15.72397995 6.167440891 9.636015892
84 1 0.0 18.556396484 7.969590187 14.454023361
85 1 0.0 12.793049812 7.689426422 0.0
86 1 0.0 15.625464439 9.491576195 4.818007946
87 1 0.0 18.45788002 11.293725014 9.636015892
88 1 0.0 21.290294647 13.095874786 14.454023361
89 1 0.0 15.526947975 12.815710068 0.0
90 1 0.0 18.359363556 14.61785984 4.818007946
91 1 0.0 21.191778183 16.420009613 9.636015892
92 1 0.0 24.02419281 18.222158432 14.454023361
93 1 0.0 18.260847092 17.941993713 0.0
94 1 0.0 21.093261719 19.744142532 4.818007946
95 1 0.0 23.925676346 21.546293259 9.636015892
96 1 0.0 26.758090973 23.348442078 14.454023361
97 1 0.0 15.853952408 2.563142061 0.0
98 1 0.0 18.686367035 4.365291595 4.818007946
99 1 0.0 21.518781662 6.167440891 9.636015892
100 1 0.0 24.351196289 7.969590187 14.454023361
101 1 0.0 18.587852478 7.689426422 0.0
102 1 0.0 21.420267105 9.491576195 4.818007946
103 1 0.0 24.252681732 11.293725014 9.636015892
104 1 0.0 27.085098267 13.095874786 14.454023361
105 1 0.0 21.321750641 12.815710068 0.0
106 1 0.0 24.154165268 14.61785984 4.818007946
107 1 0.0 26.986579895 16.420009613 9.636015892
108 1 0.0 29.818996429 18.222158432 14.454023361
109 1 0.0 24.055648804 17.941993713 0.0
110 1 0.0 26.888063431 19.744142532 4.818007946
111 1 0.0 29.720478058 21.546293259 9.636015892
112 1 0.0 32.552894592 23.348442078 14.454023361
113 1 0.0 21.64875412 2.563142061 0.0
114 1 0.0 24.481168747 4.365291595 4.818007946
115 1 0.0 27.313583374 6.167440891 9.636015892
116 1 0.0 30.145999908 7.969590187 14.454023361
117 1 0.0 24.382652283 7.689426422 0.0
118 1 0.0 27.21506691 9.491576195 4.818007946
119 1 0.0 30.047481537 11.293725014 9.636015892
120 1 0.0 32.879898071 13.095874786 14.454023361
121 1 0.0 27.116550446 12.815710068 0.0
122 1 0.0 29.948965073 14.61785984 4.818007946
123 1 0.0 32.7813797 16.420009613 9.636015892
124 1 0.0 35.613796234 18.222158432 14.454023361
125 1 0.0 29.850450516 17.941993713 0.0
126 1 0.0 32.682865143 19.744142532 4.818007946
127 1 0.0 35.515281677 21.546293259 9.636015892
128 1 0.0 38.347694397 23.348442078 14.454023361
129 1 0.0 4.31360817 0.901074708 2.409003973
130 1 0.0 7.146022797 2.703224182 7.227011681
131 1 0.0 9.978437424 4.505373478 12.045020103
132 1 0.0 12.810853004 6.307522774 16.863027573
133 1 0.0 7.047506332 6.027359009 2.409003973
134 1 0.0 9.879920959 7.829508305 7.227011681
135 1 0.0 12.712335587 9.6316576 12.045020103
136 1 0.0 15.544751167 11.433807373 16.863027573
137 1 0.0 9.781405449 11.153642654 2.409003973
138 1 0.0 12.61382103 12.955792427 7.227011681
139 1 0.0 15.446235657 14.7579422 12.045020103
140 1 0.0 18.278650284 16.560091019 16.863027573
141 1 0.0 12.515304565 16.279928207 2.409003973
142 1 0.0 15.347719193 18.082077026 7.227011681
143 1 0.0 18.18013382 19.884225845 12.045020103
144 1 0.0 21.012550354 21.686374664 16.863027573
145 1 0.0 10.108408928 0.901074708 2.409003973
146 1 0.0 12.940824509 2.703224182 7.227011681
147 1 0.0 15.773239136 4.505373478 12.045020103
148 1 0.0 18.605653763 6.307522774 16.863027573
149 1 0.0 12.842307091 6.027359009 2.409003973
150 1 0.0 15.674722672 7.829508305 7.227011681
151 1 0.0 18.507137299 9.6316576 12.045020103
152 1 0.0 21.339551926 11.433807373 16.863027573
153 1 0.0 15.576206207 11.153642654 2.409003973
154 1 0.0 18.408620834 12.955792427 7.227011681
155 1 0.0 21.241035461 14.7579422 12.045020103
156 1 0.0 24.073451996 16.560091019 16.863027573
157 1 0.0 18.310106277 16.279928207 2.409003973
158 1 0.0 21.142520905 18.082077026 7.227011681
159 1 0.0 23.974935532 19.884225845 12.045020103
160 1 0.0 26.807350159 21.686374664 16.863027573
161 1 0.0 15.90321064 0.901074708 2.409003973
162 1 0.0 18.735626221 2.703224182 7.227011681
163 1 0.0 21.568040848 4.505373478 12.045020103
164 1 0.0 24.400455475 6.307522774 16.863027573
165 1 0.0 18.637109756 6.027359009 2.409003973
166 1 0.0 21.469524384 7.829508305 7.227011681
167 1 0.0 24.301939011 9.6316576 12.045020103
168 1 0.0 27.134353638 11.433807373 16.863027573
169 1 0.0 21.371007919 11.153642654 2.409003973
170 1 0.0 24.203422546 12.955792427 7.227011681
171 1 0.0 27.035837173 14.7579422 12.045020103
172 1 0.0 29.868251801 16.560091019 16.863027573
173 1 0.0 24.10490799 16.279928207 2.409003973
174 1 0.0 26.937322617 18.082077026 7.227011681
175 1 0.0 29.769737244 19.884225845 12.045020103
176 1 0.0 32.602149963 21.686374664 16.863027573
177 1 0.0 21.698013306 0.901074708 2.409003973
178 1 0.0 24.530427933 2.703224182 7.227011681
179 1 0.0 27.36284256 4.505373478 12.045020103
180 1 0.0 30.195257187 6.307522774 16.863027573
181 1 0.0 24.431911469 6.027359009 2.409003973
182 1 0.0 27.264326096 7.829508305 7.227011681
183 1 0.0 30.096740723 9.6316576 12.045020103
184 1 0.0 32.929153442 11.433807373 16.863027573
185 1 0.0 27.165811539 11.153642654 2.409003973
186 1 0.0 29.998226166 12.955792427 7.227011681
187 1 0.0 32.830638885 14.7579422 12.045020103
188 1 0.0 35.66305542 16.560091019 16.863027573
189 1 0.0 29.899709702 16.279928207 2.409003973
190 1 0.0 32.732124329 18.082077026 7.227011681
191 1 0.0 35.564537048 19.884225845 12.045020103
192 1 0.0 38.396953583 21.686374664 16.863027573
193 2 0.0 1.36694932 2.563142061 0.0
194 2 0.0 4.199364185 4.365291595 4.818007946
195 2 0.0 7.031779289 6.167440891 9.636015892
196 2 0.0 9.864193916 7.969590187 14.454023361
197 2 0.0 4.100848198 7.689426422 0.0
198 2 0.0 6.933262825 9.491576195 4.818007946
199 2 0.0 9.765678406 11.293725014 9.636015892
200 2 0.0 12.598093033 13.095874786 14.454023361
201 2 0.0 6.834746361 12.815710068 0.0
202 2 0.0 9.667160988 14.61785984 4.818007946
203 2 0.0 12.499576569 16.420009613 9.636015892
204 2 0.0 15.331991196 18.222158432 14.454023361
205 2 0.0 9.568645477 17.941993713 0.0
206 2 0.0 12.401060104 19.744142532 4.818007946
207 2 0.0 15.233474731 21.546293259 9.636015892
208 2 0.0 18.065891266 23.348442078 14.454023361
209 2 0.0 7.161750793 2.563142061 0.0
210 2 0.0 9.994165421 4.365291595 4.818007946
211 2 0.0 12.826580048 6.167440891 9.636015892
212 2 0.0 15.658995628 7.969590187 14.454023361
213 2 0.0 9.895648956 7.689426422 0.0
214 2 0.0 12.728063583 9.491576195 4.818007946
215 2 0.0 15.56047821 11.293725014 9.636015892
216 2 0.0 18.392894745 13.095874786 14.454023361
217 2 0.0 12.629547119 12.815710068 0.0
218 2 0.0 15.461961746 14.61785984 4.818007946
219 2 0.0 18.294376373 16.420009613 9.636015892
220 2 0.0 21.126792908 18.222158432 14.454023361
221 2 0.0 15.363447189 17.941993713 0.0
222 2 0.0 18.195861816 19.744142532 4.818007946
223 2 0.0 21.028276443 21.546293259 9.636015892
224 2 0.0 23.860691071 23.348442078 14.454023361
225 2 0.0 12.956551552 2.563142061 0.0
226 2 0.0 15.788966179 4.365291595 4.818007946
227 2 0.0 18.62138176 6.167440891 9.636015892
228 2 0.0 21.453796387 7.969590187 14.454023361
229 2 0.0 15.690450668 7.689426422 0.0
230 2 0.0 18.522865295 9.491576195 4.818007946
231 2 0.0 21.355279922 11.293725014 9.636015892
232 2 0.0 24.18769455 13.095874786 14.454023361
233 2 0.0 18.424348831 12.815710068 0.0
234 2 0.0 21.256763458 14.61785984 4.818007946
235 2 0.0 24.089178085 16.420009613 9.636015892
236 2 0.0 26.921592712 18.222158432 14.454023361
237 2 0.0 21.158248901 17.941993713 0.0
238 2 0.0 23.990663528 19.744142532 4.818007946
239 2 0.0 26.823078156 21.546293259 9.636015892
240 2 0.0 29.65549469 23.348442078 14.454023361
241 2 0.0 18.75135231 2.563142061 0.0
242 2 0.0 21.583766937 4.365291595 4.818007946
243 2 0.0 24.416181564 6.167440891 9.636015892
244 2 0.0 27.248596191 7.969590187 14.454023361
245 2 0.0 21.48525238 7.689426422 0.0
246 2 0.0 24.317667007 9.491576195 4.818007946
247 2 0.0 27.150081635 11.293725014 9.636015892
248 2 0.0 29.982498169 13.095874786 14.454023361
249 2 0.0 24.219150543 12.815710068 0.0
250 2 0.0 27.05156517 14.61785984 4.818007946
251 2 0.0 29.883979797 16.420009613 9.636015892
252 2 0.0 32.716396332 18.222158432 14.454023361
253 2 0.0 26.953048706 17.941993713 0.0
254 2 0.0 29.785463333 19.744142532 4.818007946
255 2 0.0 32.61787796 21.546293259 9.636015892
256 2 0.0 35.450294495 23.348442078 14.454023361
257 2 0.0 2.897400618 0.0 0.0
258 2 0.0 5.729815483 1.802149415 4.818007946
259 2 0.0 8.56223011 3.60429883 9.636015892
260 2 0.0 11.394645691 5.406448364 14.454023361
261 2 0.0 5.631299019 5.126284122 0.0
262 2 0.0 8.463713646 6.928433418 4.818007946
263 2 0.0 11.296129227 8.730583191 9.636015892
264 2 0.0 14.128543854 10.53273201 14.454023361
265 2 0.0 8.365198135 10.252568245 0.0
266 2 0.0 11.197612762 12.054718018 4.818007946
267 2 0.0 14.03002739 13.856866837 9.636015892
268 2 0.0 16.862442017 15.659016609 14.454023361
269 2 0.0 11.099097252 15.378852844 0.0
270 2 0.0 13.931511879 17.181001663 4.818007946
271 2 0.0 16.76392746 18.98315239 9.636015892
272 2 0.0 19.596342087 20.785301208 14.454023361
273 2 0.0 8.692201614 0.0 0.0
274 2 0.0 11.524616241 1.802149415 4.818007946
275 2 0.0 14.357030869 3.60429883 9.636015892
276 2 0.0 17.189445496 5.406448364 14.454023361
277 2 0.0 11.426099777 5.126284122 0.0
278 2 0.0 14.258514404 6.928433418 4.818007946
279 2 0.0 17.090929031 8.730583191 9.636015892
280 2 0.0 19.923343658 10.53273201 14.454023361
281 2 0.0 14.159998894 10.252568245 0.0
282 2 0.0 16.992414474 12.054718018 4.818007946
283 2 0.0 19.824829102 13.856866837 9.636015892
284 2 0.0 22.657243729 15.659016609 14.454023361
285 2 0.0 16.89389801 15.378852844 0.0
286 2 0.0 19.726312637 17.181001663 4.818007946
287 2 0.0 22.558727264 18.98315239 9.636015892
288 2 0.0 25.391143799 20.785301208 14.454023361
289 2 0.0 14.487003326 0.0 0.0
290 2 0.0 17.319417953 1.802149415 4.818007946
291 2 0.0 20.151832581 3.60429883 9.636015892
292 2 0.0 22.984249115 5.406448364 14.454023361
293 2 0.0 17.220901489 5.126284122 0.0
294 2 0.0 20.053316116 6.928433418 4.818007946
295 2 0.0 22.885730743 8.730583191 9.636015892
296 2 0.0 25.718147278 10.53273201 14.454023361
297 2 0.0 19.954799652 10.252568245 0.0
298 2 0.0 22.787214279 12.054718018 4.818007946
299 2 0.0 25.619628906 13.856866837 9.636015892
300 2 0.0 28.452045441 15.659016609 14.454023361
301 2 0.0 22.688699722 15.378852844 0.0
302 2 0.0 25.521114349 17.181001663 4.818007946
303 2 0.0 28.353528976 18.98315239 9.636015892
304 2 0.0 31.185943604 20.785301208 14.454023361
305 2 0.0 20.281805038 0.0 0.0
306 2 0.0 23.114219666 1.802149415 4.818007946
307 2 0.0 25.946634293 3.60429883 9.636015892
308 2 0.0 28.77904892 5.406448364 14.454023361
309 2 0.0 23.015703201 5.126284122 0.0
310 2 0.0 25.848117828 6.928433418 4.818007946
311 2 0.0 28.680532455 8.730583191 9.636015892
312 2 0.0 31.512947083 10.53273201 14.454023361
313 2 0.0 25.749603271 10.252568245 0.0
314 2 0.0 28.582017899 12.054718018 4.818007946
315 2 0.0 31.414432526 13.856866837 9.636015892
316 2 0.0 34.24684906 15.659016609 14.454023361
317 2 0.0 28.483501434 15.378852844 0.0
318 2 0.0 31.315916061 17.181001663 4.818007946
319 2 0.0 34.148330688 18.98315239 9.636015892
320 2 0.0 36.980747223 20.785301208 14.454023361
321 3 0.0 0.0 0.0 0.0
322 3 0.0 2.832414865 1.802149415 4.818007946
323 3 0.0 5.664829731 3.60429883 9.636015892
324 3 0.0 8.497244835 5.406448364 14.454023361
325 3 0.0 2.73389864 5.126284122 0.0
326 3 0.0 5.566313744 6.928433418 4.818007946
327 3 0.0 8.398728371 8.730583191 9.636015892
328 3 0.0 11.231143951 10.53273201 14.454023361
329 3 0.0 5.467797279 10.252568245 0.0
330 3 0.0 8.300211906 12.054718018 4.818007946
331 3 0.0 11.132627487 13.856866837 9.636015892
332 3 0.0 13.965042114 15.659016609 14.454023361
333 3 0.0 8.201696396 15.378852844 0.0
334 3 0.0 11.034111023 17.181001663 4.818007946
335 3 0.0 13.86652565 18.98315239 9.636015892
336 3 0.0 16.698940277 20.785301208 14.454023361
337 3 0.0 5.794801235 0.0 0.0
338 3 0.0 8.627216339 1.802149415 4.818007946
339 3 0.0 11.459630966 3.60429883 9.636015892
340 3 0.0 14.292045593 5.406448364 14.454023361
341 3 0.0 8.528699875 5.126284122 0.0
342 3 0.0 11.361114502 6.928433418 4.818007946
343 3 0.0 14.193529129 8.730583191 9.636015892
344 3 0.0 17.025943756 10.53273201 14.454023361
345 3 0.0 11.262598038 10.252568245 0.0
346 3 0.0 14.095012665 12.054718018 4.818007946
347 3 0.0 16.927427292 13.856866837 9.636015892
348 3 0.0 19.759841919 15.659016609 14.454023361
349 3 0.0 13.996498108 15.378852844 0.0
350 3 0.0 16.828912735 17.181001663 4.818007946
351 3 0.0 19.661327362 18.98315239 9.636015892
352 3 0.0 22.493743896 20.785301208 14.454023361
353 3 0.0 11.58960247 0.0 0.0
354 3 0.0 14.422017097 1.802149415 4.818007946
355 3 0.0 17.254432678 3.60429883 9.636015892
356 3 0.0 20.086847305 5.406448364 14.454023361
357 3 0.0 14.323501587 5.126284122 0.0
358 3 0.0 17.155916214 6.928433418 4.818007946
359 3 0.0 19.988330841 8.730583191 9.636015892
360 3 0.0 22.820747375 10.53273201 14.454023361
361 3 0.0 17.05739975 10.252568245 0.0
362 3 0.0 19.889814377 12.054718018 4.818007946
363 3 0.0 22.722229004 13.856866837 9.636015892
364 3 0.0 25.554645538 15.659016609 14.454023361
365 3 0.0 19.791297913 15.378852844 0.0
366 3 0.0 22.62371254 17.181001663 4.818007946
367 3 0.0 25.456127167 18.98315239 9.636015892
368 3 0.0 28.288543701 20.785301208 14.454023361
369 3 0.0 17.384403229 0.0 0.0
370 3 0.0 20.216817856 1.802149415 4.818007946
371 3 0.0 23.049232483 3.60429883 9.636015892
372 3 0.0 25.881649017 5.406448364 14.454023361
373 3 0.0 20.118301392 5.126284122 0.0
374 3 0.0 22.950716019 6.928433418 4.818007946
375 3 0.0 25.783130646 8.730583191 9.636015892
376 3 0.0 28.61554718 10.53273201 14.454023361
377 3 0.0 22.852199554 10.252568245 0.0
378 3 0.0 25.684614182 12.054718018 4.818007946
379 3 0.0 28.517028809 13.856866837 9.636015892
380 3 0.0 31.349445343 15.659016609 14.454023361
381 3 0.0 25.586099625 15.378852844 0.0
382 3 0.0 28.418514252 17.181001663 4.818007946
383 3 0.0 31.250928879 18.98315239 9.636015892
384 3 0.0 34.083343506 20.785301208 14.454023361
385 3 0.0 1.416207433 0.901074708 2.409003973
386 3 0.0 4.248622417 2.703224182 7.227011681
387 3 0.0 7.081037045 4.505373478 12.045020103
388 3 0.0 9.913452148 6.307522774 16.863027573
389 3 0.0 4.150105953 6.027359009 2.409003973
390 3 0.0 6.982521057 7.829508305 7.227011681
391 3 0.0 9.814935684 9.6316576 12.045020103
392 3 0.0 12.647350311 11.433807373 16.863027573
393 3 0.0 6.884004593 11.153642654 2.409003973
394 3 0.0 9.71641922 12.955792427 7.227011681
395 3 0.0 12.548833847 14.7579422 12.045020103
396 3 0.0 15.381249428 16.560091019 16.863027573
397 3 0.0 9.617903709 16.279928207 2.409003973
398 3 0.0 12.45031929 18.082077026 7.227011681
399 3 0.0 15.282733917 19.884225845 12.045020103
400 3 0.0 18.115148544 21.686374664 16.863027573
401 3 0.0 7.211008549 0.901074708 2.409003973
402 3 0.0 10.043423653 2.703224182 7.227011681
403 3 0.0 12.87583828 4.505373478 12.045020103
404 3 0.0 15.70825386 6.307522774 16.863027573
405 3 0.0 9.944907188 6.027359009 2.409003973
406 3 0.0 12.777322769 7.829508305 7.227011681
407 3 0.0 15.609737396 9.6316576 12.045020103
408 3 0.0 18.442152023 11.433807373 16.863027573
409 3 0.0 12.678805351 11.153642654 2.409003973
410 3 0.0 15.511220932 12.955792427 7.227011681
411 3 0.0 18.343635559 14.7579422 12.045020103
412 3 0.0 21.176050186 16.560091019 16.863027573
413 3 0.0 15.412705421 16.279928207 2.409003973
414 3 0.0 18.245121002 18.082077026 7.227011681
415 3 0.0 21.077535629 19.884225845 12.045020103
416 3 0.0 23.909950256 21.686374664 16.863027573
417 3 0.0 13.005809784 0.901074708 2.409003973
418 3 0.0 15.838224411 2.703224182 7.227011681
419 3 0.0 18.670639038 4.505373478 12.045020103
420 3 0.0 21.503055573 6.307522774 16.863027573
421 3 0.0 15.7397089 6.027359009 2.409003973
422 3 0.0 18.572124481 7.829508305 7.227011681
423 3 0.0 21.404539108 9.6316576 12.045020103
424 3 0.0 24.236953735 11.433807373 16.863027573
425 3 0.0 18.473608017 11.153642654 2.409003973
426 3 0.0 21.306022644 12.955792427 7.227011681
427 3 0.0 24.138437271 14.7579422 12.045020103
428 3 0.0 26.970851898 16.560091019 16.863027573
429 3 0.0 21.20750618 16.279928207 2.409003973
430 3 0.0 24.039920807 18.082077026 7.227011681
431 3 0.0 26.872335434 19.884225845 12.045020103
432 3 0.0 29.704750061 21.686374664 16.863027573
433 3 0.0 18.800611496 0.901074708 2.409003973
434 3 0.0 21.633026123 2.703224182 7.227011681
435 3 0.0 24.46544075 4.505373478 12.045020103
436 3 0.0 27.297855377 6.307522774 16.863027573
437 3 0.0 21.534509659 6.027359009 2.409003973
438 3 0.0 24.366924286 7.829508305 7.227011681
439 3 0.0 27.199338913 9.6316576 12.045020103
440 3 0.0 30.03175354 11.433807373 16.863027573
441 3 0.0 24.268407822 11.153642654 2.409003973
442 3 0.0 27.100822449 12.955792427 7.227011681
443 3 0.0 29.933237076 14.7579422 12.045020103
444 3 0.0 32.765651703 16.560091019 16.863027573
445 3 0.0 27.002307892 16.279928207 2.409003973
446 3 0.0 29.834722519 18.082077026 7.227011681
447 3 0.0 32.667137146 19.884225845 12.045020103
448 3 0.0 35.499549866 21.686374664 16.863027573
449 4 0.0 8.471440315 4.844351292 3.687654972
450 4 0.0 11.303854942 6.646500587 8.505662918
451 4 0.0 14.136270523 8.44865036 13.323670387
452 4 0.0 16.96868515 10.250799179 18.141677856
453 4 0.0 11.205339432 9.970635414 3.687654972
454 4 0.0 14.037754059 11.772785187 8.505662918
455 4 0.0 16.870168686 13.574934006 13.323670387
456 4 0.0 19.702583313 15.377083778 18.141677856
457 4 0.0 13.939237595 15.096920013 3.687654972
458 4 0.0 16.771652222 16.899068832 8.505662918
459 4 0.0 19.604066849 18.701219559 13.323670387
460 4 0.0 22.436481476 20.503368378 18.141677856
461 4 0.0 16.673137665 20.223203659 3.687654972
462 4 0.0 19.505550385 22.025352478 8.505662918
463 4 0.0 22.337966919 23.827503204 13.323670387
464 4 0.0 25.170381546 25.629652023 18.141677856
465 4 0.0 14.266241074 4.844351292 3.687654972
466 4 0.0 17.098655701 6.646500587 8.505662918
467 4 0.0 19.931070328 8.44865036 13.323670387
468 4 0.0 22.763484955 10.250799179 18.141677856
469 4 0.0 17.000139236 9.970635414 3.687654972
470 4 0.0 19.832553864 11.772785187 8.505662918
471 4 0.0 22.664968491 13.574934006 13.323670387
472 4 0.0 25.497383118 15.377083778 18.141677856
473 4 0.0 19.734037399 15.096920013 3.687654972
474 4 0.0 22.566452026 16.899068832 8.505662918
475 4 0.0 25.398866653 18.701219559 13.323670387
476 4 0.0 28.231281281 20.503368378 18.141677856
477 4 0.0 22.467937469 20.223203659 3.687654972
478 4 0.0 25.300352097 22.025352478 8.505662918
479 4 0.0 28.132766724 23.827503204 13.323670387
480 4 0.0 30.965183258 25.629652023 18.141677856
481 4 0.0 20.061042786 4.844351292 3.687654972
482 4 0.0 22.893457413 6.646500587 8.505662918
483 4 0.0 25.72587204 8.44865036 13.323670387
484 4 0.0 28.558288574 10.250799179 18.141677856
485 4 0.0 22.794940948 9.970635414 3.687654972
486 4 0.0 25.627355576 11.772785187 8.505662918
487 4 0.0 28.459770203 13.574934006 13.323670387
488 4 0.0 31.292186737 15.377083778 18.141677856
489 4 0.0 25.528841019 15.096920013 3.687654972
490 4 0.0 28.361255646 16.899068832 8.505662918
491 4 0.0 31.193670273 18.701219559 13.323670387
492 4 0.0 34.0260849 20.503368378 18.141677856
493 4 0.0 28.262739182 20.223203659 3.687654972
494 4 0.0 31.095153809 22.025352478 8.505662918
495 4 0.0 33.927570343 23.827503204 13.323670387
496 4 0.0 36.759983063 25.629652023 18.141677856
497 4 0.0 25.855844498 4.844351292 3.687654972
498 4 0.0 28.688259125 6.646500587 8.505662918
499 4 0.0 31.520673752 8.44865036 13.323670387
500 4 0.0 34.353088379 10.250799179 18.141677856
501 4 0.0 28.589742661 9.970635414 3.687654972
502 4 0.0 31.422157288 11.772785187 8.505662918
503 4 0.0 34.254573822 13.574934006 13.323670387
504 4 0.0 37.086986542 15.377083778 18.141677856
505 4 0.0 31.323640823 15.096920013 3.687654972
506 4 0.0 34.15605545 16.899068832 8.505662918
507 4 0.0 36.988471985 18.701219559 13.323670387
508 4 0.0 39.820884705 20.503368378 18.141677856
509 4 0.0 34.057540894 20.223203659 3.687654972
510 4 0.0 36.889953613 22.025352478 8.505662918
511 4 0.0 39.722370148 23.827503204 13.323670387
512 4 0.0 42.554786682 25.629652023 18.141677856
513 4 0.0 7.215473652 2.470874071 3.644683123
514 4 0.0 10.047887802 4.273023605 8.462691307
515 4 0.0 12.880303383 6.075172901 13.280698776
516 4 0.0 15.71271801 7.877322197 18.098707199
517 4 0.0 9.949372292 7.597157955 3.644683123
518 4 0.0 12.781786919 9.399307251 8.462691307
519 4 0.0 15.614202499 11.201457024 13.280698776
520 4 0.0 18.446617126 13.003606796 18.098707199
521 4 0.0 12.683271408 12.723442078 3.644683123
522 4 0.0 15.515686035 14.52559185 8.462691307
523 4 0.0 18.348100662 16.327741623 13.280698776
524 4 0.0 21.180515289 18.129890442 18.098707199
525 4 0.0 15.417169571 17.849725723 3.644683123
526 4 0.0 18.249584198 19.651874542 8.462691307
527 4 0.0 21.081998825 21.454025269 13.280698776
528 4 0.0 23.914413452 23.256174088 18.098707199
529 4 0.0 13.010274887 2.470874071 3.644683123
530 4 0.0 15.842689514 4.273023605 8.462691307
531 4 0.0 18.675106049 6.075172901 13.280698776
532 4 0.0 21.507518768 7.877322197 18.098707199
533 4 0.0 15.74417305 7.597157955 3.644683123
534 4 0.0 18.576587677 9.399307251 8.462691307
535 4 0.0 21.409004211 11.201457024 13.280698776
536 4 0.0 24.241416931 13.003606796 18.098707199
537 4 0.0 18.47807312 12.723442078 3.644683123
538 4 0.0 21.310487747 14.52559185 8.462691307
539 4 0.0 24.142902374 16.327741623 13.280698776
540 4 0.0 26.975318909 18.129890442 18.098707199
541 4 0.0 21.211971283 17.849725723 3.644683123
542 4 0.0 24.04438591 19.651874542 8.462691307
543 4 0.0 26.876800537 21.454025269 13.280698776
544 4 0.0 29.709217072 23.256174088 18.098707199
545 4 0.0 18.805076599 2.470874071 3.644683123
546 4 0.0 21.637491226 4.273023605 8.462691307
547 4 0.0 24.469905853 6.075172901 13.280698776
548 4 0.0 27.302322388 7.877322197 18.098707199
549 4 0.0 21.538974762 7.597157955 3.644683123
550 4 0.0 24.371389389 9.399307251 8.462691307
551 4 0.0 27.203804016 11.201457024 13.280698776
552 4 0.0 30.036220551 13.003606796 18.098707199
553 4 0.0 24.272872925 12.723442078 3.644683123
554 4 0.0 27.105287552 14.52559185 8.462691307
555 4 0.0 29.937702179 16.327741623 13.280698776
556 4 0.0 32.770118713 18.129890442 18.098707199
557 4 0.0 27.006771088 17.849725723 3.644683123
558 4 0.0 29.839185715 19.651874542 8.462691307
559 4 0.0 32.671600342 21.454025269 13.280698776
560 4 0.0 35.504016876 23.256174088 18.098707199
561 4 0.0 24.599878311 2.470874071 3.644683123
562 4 0.0 27.432292938 4.273023605 8.462691307
563 4 0.0 30.264709473 6.075172901 13.280698776
564 4 0.0 33.097122192 7.877322197 18.098707199
565 4 0.0 27.333776474 7.597157955 3.644683123
566 4 0.0 30.166191101 9.399307251 8.462691307
567 4 0.0 32.998607635 11.201457024 13.280698776
568 4 0.0 35.831020355 13.003606796 18.098707199
569 4 0.0 30.067676544 12.723442078 3.644683123
570 4 0.0 32.900093079 14.52559185 8.462691307
571 4 0.0 35.732505798 16.327741623 13.280698776
572 4 0.0 38.564922333 18.129890442 18.098707199
573 4 0.0 32.801574707 17.849725723 3.644683123
574 4 0.0 35.633991241 19.651874542 8.462691307
575 4 0.0 38.466403961 21.454025269 13.280698776
576 4 0.0 41.298820496 23.256174088 18.098707199
577 4 0.0 7.342193127 4.460479259 1.074039936
578 4 0.0 10.174608231 6.262628555 5.892047882
579 4 0.0 13.007022858 8.064778328 10.710056305
580 4 0.0 15.839437485 9.866928101 15.528063774
581 4 0.0 10.076091766 9.586764336 1.074039936
582 4 0.0 12.908506393 11.388913155 5.892047882
583 4 0.0 15.740921021 13.191062927 10.710056305
584 4 0.0 18.573337555 14.993211746 15.528063774
585 4 0.0 12.809989929 14.713047028 1.074039936
586 4 0.0 15.642404556 16.515195847 5.892047882
587 4 0.0 18.474819183 18.317344666 10.710056305
588 4 0.0 21.307235718 20.119495392 15.528063774
589 4 0.0 15.543889046 19.839330673 1.074039936
590 4 0.0 18.376304626 21.641479492 5.892047882
591 4 0.0 21.208719254 23.443630219 10.710056305
592 4 0.0 24.041133881 25.245779037 15.528063774
593 4 0.0 13.136994362 4.460479259 1.074039936
594 4 0.0 15.969408989 6.262628555 5.892047882
595 4 0.0 18.80182457 8.064778328 10.710056305
596 4 0.0 21.634239197 9.866928101 15.528063774
597 4 0.0 15.870892525 9.586764336 1.074039936
598 4 0.0 18.703308105 11.388913155 5.892047882
599 4 0.0 21.535722733 13.191062927 10.710056305
600 4 0.0 24.36813736 14.993211746 15.528063774
601 4 0.0 18.604789734 14.713047028 1.074039936
602 4 0.0 21.437206268 16.515195847 5.892047882
603 4 0.0 24.269620895 18.317344666 10.710056305
604 4 0.0 27.102035522 20.119495392 15.528063774
605 4 0.0 21.338689804 19.839330673 1.074039936
606 4 0.0 24.171104431 21.641479492 5.892047882
607 4 0.0 27.003520966 23.443630219 10.710056305
608 4 0.0 29.835935593 25.245779037 15.528063774
609 4 0.0 18.93179512 4.460479259 1.074039936
610 4 0.0 21.764209747 6.262628555 5.892047882
611 4 0.0 24.596626282 8.064778328 10.710056305
612 4 0.0 27.429040909 9.866928101 15.528063774
613 4 0.0 21.665693283 9.586764336 1.074039936
614 4 0.0 24.49810791 11.388913155 5.892047882
615 4 0.0 27.330524445 13.191062927 10.710056305
616 4 0.0 30.162939072 14.993211746 15.528063774
617 4 0.0 24.399591446 14.713047028 1.074039936
618 4 0.0 27.232006073 16.515195847 5.892047882
619 4 0.0 30.064422607 18.317344666 10.710056305
620 4 0.0 32.896835327 20.119495392 15.528063774
621 4 0.0 27.133489609 19.839330673 1.074039936
622 4 0.0 29.965904236 21.641479492 5.892047882
623 4 0.0 32.79832077 23.443630219 10.710056305
624 4 0.0 35.630737305 25.245779037 15.528063774
625 4 0.0 24.726594925 4.460479259 1.074039936