# LAMMPS data file written by Ovito Basic 3.0.0-dev791
1536 atoms
2 atom types
0.0 29.8434715271 xlo xhi
0.0 29.8434715271 ylo yhi
0.0 29.8434715271 zlo zhi

Atoms  # charge

1 1 0.0 1.86521697 1.86521697 1.86521697
2 1 0.0 1.86521697 1.86521697 9.326085091
3 1 0.0 1.86521697 1.86521697 16.786952972
4 1 0.0 1.86521697 1.86521697 24.247819901
5 1 0.0 1.86521697 9.326085091 1.86521697
6 1 0.0 1.86521697 9.326085091 9.326085091
7 1 0.0 1.86521697 9.326085091 16.786952972
8 1 0.0 1.86521697 9.326085091 24.247819901
9 1 0.0 1.86521697 16.786952972 1.86521697
10 1 0.0 1.86521697 16.786952972 9.326085091
11 1 0.0 1.86521697 16.786952972 16.786952972
12 1 0.0 1.86521697 16.786952972 24.247819901
13 1 0.0 1.86521697 24.247819901 1.86521697
14 1 0.0 1.86521697 24.247819901 9.326085091
15 1 0.0 1.86521697 24.247819901 16.786952972
16 1 0.0 1.86521697 24.247819901 24.247819901
17 1 0.0 9.326085091 1.86521697 1.86521697
18 1 0.0 9.326085091 1.86521697 9.326085091
19 1 0.0 9.326085091 1.86521697 16.786952972
20 1 0.0 9.326085091 1.86521697 24.247819901
21 1 0.0 9.326085091 9.326085091 1.86521697
22 1 0.0 9.326085091 9.326085091 9.326085091
23 1 0.0 9.326085091 9.326085091 16.786952972
24 1 0.0 9.326085091 9.326085091 24.247819901
25 1 0.0 9.326085091 16.786952972 1.86521697
26 1 0.0 9.326085091 16.786952972 9.326085091
27 1 0.0 9.326085091 16.786952972 16.786952972
28 1 0.0 9.326085091 16.786952972 24.247819901
29 1 0.0 9.326085091 24.247819901 1.86521697
30 1 0.0 9.326085091 24.247819901 9.326085091
31 1 0.0 9.326085091 24.247819901 16.786952972
32 1 0.0 9.326085091 24.247819901 24.247819901
33 1 0.0 16.786952972 1.86521697 1.86521697
34 1 0.0 16.786952972 1.86521697 9.326085091
35 1 0.0 16.786952972 1.86521697 16.786952972
36 1 0.0 16.786952972 1.86521697 24.247819901
37 1 0.0 16.786952972 9.326085091 1.86521697
38 1 0.0 16.786952972 9.326085091 9.326085091
39 1 0.0 16.786952972 9.326085091 16.786952972
40 1 0.0 16.786952972 9.326085091 24.247819901
41 1 0.0 16.786952972 16.786952972 1.86521697
42 1 0.0 16.786952972 16.786952972 9.326085091
43 1 0.0 16.786952972 16.786952972 16.786952972
44 1 0.0 16.786952972 16.786952972 24.247819901
45 1 0.0 16.786952972 24.247819901 1.86521697
46 1 0.0 16.786952972 24.247819901 9.326085091
47 1 0.0 16.786952972 24.247819901 16.786952972
48 1 0.0 16.786952972 24.247819901 24.247819901
49 1 0.0 24.247819901 1.86521697 1.86521697
50 1 0.0 24.247819901 1.86521697 9.326085091
51 1 0.0 24.247819901 1.86521697 16.786952972
52 1 0.0 24.247819901 1.86521697 24.247819901
53 1 0.0 24.247819901 9.326085091 1.86521697
54 1 0.0 24.247819901 9.326085091 9.326085091
55 1 0.0 24.247819901 9.326085091 16.786952972
56 1 0.0 24.247819901 9.326085091 24.247819901
57 1 0.0 24.247819901 16.786952972 1.86521697
58 1 0.0 24.247819901 16.786952972 9.326085091
59 1 0.0 24.247819901 16.786952972 16.786952972
60 1 0.0 24.247819901 16.786952972 24.247819901
61 1 0.0 24.247819901 24.247819901 1.86521697
62 1 0.0 24.247819901 24.247819901 9.326085091
63 1 0.0 24.247819901 24.247819901 16.786952972
64 1 0.0 24.247819901 24.247819901 24.247819901
65 1 0.0 3.730433941 0.0 3.730433941
66 1 0.0 3.730433941 0.0 11.191301346
67 1 0.0 3.730433941 0.0 18.652170181
68 1 0.0 3.730433941 0.0 26.113037109
69 1 0.0 3.730433941 7.460867882 3.730433941
70 1 0.0 3.730433941 7.460867882 11.191301346
71 1 0.0 3.730433941 7.460867882 18.652170181
72 1 0.0 3.730433941 7.460867882 26.113037109
73 1 0.0 3.730433941 14.921735764 3.730433941
74 1 0.0 3.730433941 14.921735764 11.191301346
75 1 0.0 3.730433941 14.921735764 18.652170181
76 1 0.0 3.730433941 14.921735764 26.113037109
77 1 0.0 3.730433941 22.382602692 3.730433941
78 1 0.0 3.730433941 22.382602692 11.191301346
79 1 0.0 3.730433941 22.382602692 18.652170181
80 1 0.0 3.730433941 22.382602692 26.113037109
81 1 0.0 11.191301346 0.0 3.730433941
82 1 0.0 11.191301346 0.0 11.191301346
83 1 0.0 11.191301346 0.0 18.652170181
84 1 0.0 11.191301346 0.0 26.113037109
85 1 0.0 11.191301346 7.460867882 3.730433941
86 1 0.0 11.191301346 7.460867882 11.191301346
87 1 0.0 11.191301346 7.460867882 18.652170181
88 1 0.0 11.191301346 7.460867882 26.113037109
89 1 0.0 11.191301346 14.921735764 3.730433941
90 1 0.0 11.191301346 14.921735764 11.191301346
91 1 0.0 11.191301346 14.921735764 18.652170181
92 1 0.0 11.191301346 14.921735764 26.113037109
93 1 0.0 11.191301346 22.382602692 3.730433941
94 1 0.0 11.191301346 22.382602692 11.191301346
95 1 0.0 11.191301346 22.382602692 18.652170181
96 1 0.0 11.191301346 22.382602692 26.113037109
97 1 0.0 18.652170181 0.0 3.730433941
98 1 0.0 18.652170181 0.0 11.191301346
99 1 0.0 18.652170181 0.0 18.652170181
100 1 0.0 18.652170181 0.0 26.113037109
101 1 0.0 18.652170181 7.460867882 3.730433941
102 1 0.0 18.652170181 7.460867882 11.191301346
103 1 0.0 18.652170181 7.460867882 18.652170181
104 1 0.0 18.652170181 7.460867882 26.113037109
105 1 0.0 18.652170181 14.921735764 3.730433941
106 1 0.0 18.652170181 14.921735764 11.191301346
107 1 0.0 18.652170181 14.921735764 18.652170181
108 1 0.0 18.652170181 14.921735764 26.113037109
109 1 0.0 18.652170181 22.382602692 3.730433941
110 1 0.0 18.652170181 22.382602692 11.191301346
111 1 0.0 18.652170181 22.382602692 18.652170181
112 1 0.0 18.652170181 22.382602692 26.113037109
113 1 0.0 26.113037109 0.0 3.730433941
114 1 0.0 26.113037109 0.0 11.191301346
115 1 0.0 26.113037109 0.0 18.652170181
116 1 0.0 26.113037109 0.0 26.113037109
117 1 0.0 26.113037109 7.460867882 3.730433941
118 1 0.0 26.113037109 7.460867882 11.191301346
119 1 0.0 26.113037109 7.460867882 18.652170181
120 1 0.0 26.113037109 7.460867882 26.113037109
121 1 0.0 26.113037109 14.921735764 3.730433941
122 1 0.0 26.113037109 14.921735764 11.191301346
123 1 0.0 26.113037109 14.921735764 18.652170181
124 1 0.0 26.113037109 14.921735764 26.113037109
125 1 0.0 26.113037109 22.382602692 3.730433941
126 1 0.0 26.113037109 22.382602692 11.191301346
127 1 0.0 26.113037109 22.382602692 18.652170181
128 1 0.0 26.113037109 22.382602692 26.113037109
129 1 0.0 1.86521697 5.595650673 5.595650673
130 1 0.0 1.86521697 5.595650673 13.056518555
131 1 0.0 1.86521697 5.595650673 20.51738739
132 1 0.0 1.86521697 5.595650673 27.978254318
133 1 0.0 1.86521697 13.056518555 5.595650673
134 1 0.0 1.86521697 13.056518555 13.056518555
135 1 0.0 1.86521697 13.056518555 20.51738739
136 1 0.0 1.86521697 13.056518555 27.978254318
137 1 0.0 1.86521697 20.51738739 5.595650673
138 1 0.0 1.86521697 20.51738739 13.056518555
139 1 0.0 1.86521697 20.51738739 20.51738739
140 1 0.0 1.86521697 20.51738739 27.978254318
141 1 0.0 1.86521697 27.978254318 5.595650673
142 1 0.0 1.86521697 27.978254318 13.056518555
143 1 0.0 1.86521697 27.978254318 20.51738739
144 1 0.0 1.86521697 27.978254318 27.978254318
145 1 0.0 9.326085091 5.595650673 5.595650673
146 1 0.0 9.326085091 5.595650673 13.056518555
147 1 0.0 9.326085091 5.595650673 20.51738739
148 1 0.0 9.326085091 5.595650673 27.978254318
149 1 0.0 9.326085091 13.056518555 5.595650673
150 1 0.0 9.326085091 13.056518555 13.056518555
151 1 0.0 9.326085091 13.056518555 20.51738739
152 1 0.0 9.326085091 13.056518555 27.978254318
153 1 0.0 9.326085091 20.51738739 5.595650673
154 1 0.0 9.326085091 20.51738739 13.056518555
155 1 0.0 9.326085091 20.51738739 20.51738739
156 1 0.0 9.326085091 20.51738739 27.978254318
157 1 0.0 9.326085091 27.978254318 5.595650673
158 1 0.0 9.326085091 27.978254318 13.056518555
159 1 0.0 9.326085091 27.978254318 20.51738739
160 1 0.0 9.326085091 27.978254318 27.978254318
161 1 0.0 16.786952972 5.595650673 5.595650673
162 1 0.0 16.786952972 5.595650673 13.056518555
163 1 0.0 16.786952972 5.595650673 20.51738739
164 1 0.0 16.786952972 5.595650673 27.978254318
165 1 0.0 16.786952972 13.056518555 5.595650673
166 1 0.0 16.786952972 13.056518555 13.056518555
167 1 0.0 16.786952972 13.056518555 20.51738739
168 1 0.0 16.786952972 13.056518555 27.978254318
169 1 0.0 16.786952972 20.51738739 5.595650673
170 1 0.0 16.786952972 20.51738739 13.056518555
171 1 0.0 16.786952972 20.51738739 20.51738739
172 1 0.0 16.786952972 20.51738739 27.978254318
173 1 0.0 16.786952972 27.978254318 5.595650673
174 1 0.0 16.786952972 27.978254318 13.056518555
175 1 0.0 16.786952972 27.978254318 20.51738739
176 1 0.0 16.786952972 27.978254318 27.978254318
177 1 0.0 24.247819901 5.595650673 5.595650673
178 1 0.0 24.247819901 5.595650673 13.056518555
179 1 0.0 24.247819901 5.595650673 20.51738739
180 1 0.0 24.247819901 5.595650673 27.978254318
181 1 0.0 24.247819901 13.056518555 5.595650673
182 1 0.0 24.247819901 13.056518555 13.056518555
183 1 0.0 24.247819901 13.056518555 20.51738739
184 1 0.0 24.247819901 13.056518555 27.978254318
185 1 0.0 24.247819901 20.51738739 5.595650673
186 1 0.0 24.247819901 20.51738739 13.056518555
187 1 0.0 24.247819901 20.51738739 20.51738739
188 1 0.0 24.247819901 20.51738739 27.978254318
189 1 0.0 24.247819901 27.978254318 5.595650673
190 1 0.0 24.247819901 27.978254318 13.056518555
191 1 0.0 24.247819901 27.978254318 20.51738739
192 1 0.0 24.247819901 27.978254318 27.978254318
193 1 0.0 3.730433941 3.730433941 0.0
194 1 0.0 3.730433941 3.730433941 7.460867882
195 1 0.0 3.730433941 3.730433941 14.921735764
196 1 0.0 3.730433941 3.730433941 22.382602692
197 1 0.0 3.730433941 11.191301346 0.0
198 1 0.0 3.730433941 11.191301346 7.460867882
199 1 0.0 3.730433941 11.191301346 14.921735764
200 1 0.0 3.730433941 11.191301346 22.382602692
201 1 0.0 3.730433941 18.652170181 0.0
202 1 0.0 3.730433941 18.652170181 7.460867882
203 1 0.0 3.730433941 18.652170181 14.921735764
204 1 0.0 3.730433941 18.652170181 22.382602692
205 1 0.0 3.730433941 26.113037109 0.0
206 1 0.0 3.730433941 26.113037109 7.460867882
207 1 0.0 3.730433941 26.113037109 14.921735764
208 1 0.0 3.730433941 26.113037109 22.382602692
209 1 0.0 11.191301346 3.730433941 0.0
210 1 0.0 11.191301346 3.730433941 7.460867882
211 1 0.0 11.191301346 3.730433941 14.921735764
212 1 0.0 11.191301346 3.730433941 22.382602692
213 1 0.0 11.191301346 11.191301346 0.0
214 1 0.0 11.191301346 11.191301346 7.460867882
215 1 0.0 11.191301346 11.191301346 14.921735764
216 1 0.0 11.191301346 11.191301346 22.382602692
217 1 0.0 11.191301346 18.652170181 0.0
218 1 0.0 11.191301346 18.652170181 7.460867882
219 1 0.0 11.191301346 18.652170181 14.921735764
220 1 0.0 11.191301346 18.652170181 22.382602692
221 1 0.0 11.191301346 26.113037109 0.0
222 1 0.0 11.191301346 26.113037109 7.460867882
223 1 0.0 11.191301346 26.113037109 14.921735764
224 1 0.0 11.191301346 26.113037109 22.382602692
225 1 0.0 18.652170181 3.730433941 0.0
226 1 0.0 18.652170181 3.730433941 7.460867882
227 1 0.0 18.652170181 3.730433941 14.921735764
228 1 0.0 18.652170181 3.730433941 22.382602692
229 1 0.0 18.652170181 11.191301346 0.0
230 1 0.0 18.652170181 11.191301346 7.460867882
231 1 0.0 18.652170181 11.191301346 14.921735764
232 1 0.0 18.652170181 11.191301346 22.382602692
233 1 0.0 18.652170181 18.652170181 0.0
234 1 0.0 18.652170181 18.652170181 7.460867882
235 1 0.0 18.652170181 18.652170181 14.921735764
236 1 0.0 18.652170181 18.652170181 22.382602692
237 1 0.0 18.652170181 26.113037109 0.0
238 1 0.0 18.652170181 26.113037109 7.460867882
239 1 0.0 18.652170181 26.113037109 14.921735764
240 1 0.0 18.652170181 26.113037109 22.382602692
241 1 0.0 26.113037109 3.730433941 0.0
242 1 0.0 26.113037109 3.730433941 7.460867882
243 1 0.0 26.113037109 3.730433941 14.921735764
244 1 0.0 26.113037109 3.730433941 22.382602692
245 1 0.0 26.113037109 11.191301346 0.0
246 1 0.0 26.113037109 11.191301346 7.460867882
247 1 0.0 26.113037109 11.191301346 14.921735764
248 1 0.0 26.113037109 11.191301346 22.382602692
249 1 0.0 26.113037109 18.652170181 0.0
250 1 0.0 26.113037109 18.652170181 7.460867882
251 1 0.0 26.113037109 18.652170181 14.921735764
252 1 0.0 26.113037109 18.652170181 22.382602692
253 1 0.0 26.113037109 26.113037109 0.0
254 1 0.0 26.113037109 26.113037109 7.460867882
255 1 0.0 26.113037109 26.113037109 14.921735764
256 1 0.0 26.113037109 26.113037109 22.382602692
257 1 0.0 5.595650673 1.86521697 5.595650673
258 1 0.0 5.595650673 1.86521697 13.056518555
259 1 0.0 5.595650673 1.86521697 20.51738739
260 1 0.0 5.595650673 1.86521697 27.978254318
261 1 0.0 5.595650673 9.326085091 5.595650673
262 1 0.0 5.595650673 9.326085091 13.056518555
263 1 0.0 5.595650673 9.326085091 20.51738739
264 1 0.0 5.595650673 9.326085091 27.978254318
265 1 0.0 5.595650673 16.786952972 5.595650673
266 1 0.0 5.595650673 16.786952972 13.056518555
267 1 0.0 5.595650673 16.786952972 20.51738739
268 1 0.0 5.595650673 16.786952972 27.978254318
269 1 0.0 5.595650673 24.247819901 5.595650673
270 1 0.0 5.595650673 24.247819901 13.056518555
271 1 0.0 5.595650673 24.247819901 20.51738739
272 1 0.0 5.595650673 24.247819901 27.978254318
273 1 0.0 13.056518555 1.86521697 5.595650673
274 1 0.0 13.056518555 1.86521697 13.056518555
275 1 0.0 13.056518555 1.86521697 20.51738739
276 1 0.0 13.056518555 1.86521697 27.978254318
277 1 0.0 13.056518555 9.326085091 5.595650673
278 1 0.0 13.056518555 9.326085091 13.056518555
279 1 0.0 13.056518555 9.326085091 20.51738739
280 1 0.0 13.056518555 9.326085091 27.978254318
281 1 0.0 13.056518555 16.786952972 5.595650673
282 1 0.0 13.056518555 16.786952972 13.056518555
283 1 0.0 13.056518555 16.786952972 20.51738739
284 1 0.0 13.056518555 16.786952972 27.978254318
285 1 0.0 13.056518555 24.247819901 5.595650673
286 1 0.0 13.056518555 24.247819901 13.056518555
287 1 0.0 13.056518555 24.247819901 20.51738739
288 1 0.0 13.056518555 24.247819901 27.978254318
289 1 0.0 20.51738739 1.86521697 5.595650673
290 1 0.0 20.51738739 1.86521697 13.056518555
291 1 0.0 20.51738739 1.86521697 20.51738739
292 1 0.0 20.51738739 1.86521697 27.978254318
293 1 0.0 20.51738739 9.326085091 5.595650673
294 1 0.0 20.51738739 9.326085091 13.056518555
295 1 0.0 20.51738739 9.326085091 20.51738739
296 1 0.0 20.51738739 9.326085091 27.978254318
297 1 0.0 20.51738739 16.786952972 5.595650673
298 1 0.0 20.51738739 16.786952972 13.056518555
299 1 0.0 20.51738739 16.786952972 20.51738739
300 1 0.0 20.51738739 16.786952972 27.978254318
301 1 0.0 20.51738739 24.247819901 5.595650673
302 1 0.0 20.51738739 24.247819901 13.056518555
303 1 0.0 20.51738739 24.247819901 20.51738739
304 1 0.0 20.51738739 24.247819901 27.978254318
305 1 0.0 27.978254318 1.86521697 5.595650673
306 1 0.0 27.978254318 1.86521697 13.056518555
307 1 0.0 27.978254318 1.86521697 20.51738739
308 1 0.0 27.978254318 1.86521697 27.978254318
309 1 0.0 27.978254318 9.326085091 5.595650673
310 1 0.0 27.978254318 9.326085091 13.056518555
311 1 0.0 27.978254318 9.326085091 20.51738739
312 1 0.0 27.978254318 9.326085091 27.978254318
313 1 0.0 27.978254318 16.786952972 5.595650673
314 1 0.0 27.978254318 16.786952972 13.056518555
315 1 0.0 27.978254318 16.786952972 20.51738739
316 1 0.0 27.978254318 16.786952972 27.978254318
317 1 0.0 27.978254318 24.247819901 5.595650673
318 1 0.0 27.978254318 24.247819901 13.056518555
319 1 0.0 27.978254318 24.247819901 20.51738739
320 1 0.0 27.978254318 24.247819901 27.978254318
321 1 0.0 0.0 0.0 0.0
322 1 0.0 0.0 0.0 7.460867882
323 1 0.0 0.0 0.0 14.921735764
324 1 0.0 0.0 0.0 22.382602692
325 1 0.0 0.0 7.460867882 0.0
326 1 0.0 0.0 7.460867882 7.460867882
327 1 0.0 0.0 7.460867882 14.921735764
328 1 0.0 0.0 7.460867882 22.382602692
329 1 0.0 0.0 14.921735764 0.0
330 1 0.0 0.0 14.921735764 7.460867882
331 1 0.0 0.0 14.921735764 14.921735764
332 1 0.0 0.0 14.921735764 22.382602692
333 1 0.0 0.0 22.382602692 0.0
334 1 0.0 0.0 22.382602692 7.460867882
335 1 0.0 0.0 22.382602692 14.921735764
336 1 0.0 0.0 22.382602692 22.382602692
337 1 0.0 7.460867882 0.0 0.0
338 1 0.0 7.460867882 0.0 7.460867882
339 1 0.0 7.460867882 0.0 14.921735764
340 1 0.0 7.460867882 0.0 22.382602692
341 1 0.0 7.460867882 7.460867882 0.0
342 1 0.0 7.460867882 7.460867882 7.460867882
343 1 0.0 7.460867882 7.460867882 14.921735764
344 1 0.0 7.460867882 7.460867882 22.382602692
345 1 0.0 7.460867882 14.921735764 0.0
346 1 0.0 7.460867882 14.921735764 7.460867882
347 1 0.0 7.460867882 14.921735764 14.921735764
348 1 0.0 7.460867882 14.921735764 22.382602692
349 1 0.0 7.460867882 22.382602692 0.0
350 1 0.0 7.460867882 22.382602692 7.460867882
351 1 0.0 7.460867882 22.382602692 14.921735764
352 1 0.0 7.460867882 22.382602692 22.382602692
353 1 0.0 14.921735764 0.0 0.0
354 1 0.0 14.921735764 0.0 7.460867882
355 1 0.0 14.921735764 0.0 14.921735764
356 1 0.0 14.921735764 0.0 22.382602692
357 1 0.0 14.921735764 7.460867882 0.0
358 1 0.0 14.921735764 7.460867882 7.460867882
359 1 0.0 14.921735764 7.460867882 14.921735764
360 1 0.0 14.921735764 7.460867882 22.382602692
361 1 0.0 14.921735764 14.921735764 0.0
362 1 0.0 14.921735764 14.921735764 7.460867882
363 1 0.0 14.921735764 14.921735764 14.921735764
364 1 0.0 14.921735764 14.921735764 22.382602692
365 1 0.0 14.921735764 22.382602692 0.0
366 1 0.0 14.921735764 22.382602692 7.460867882
367 1 0.0 14.921735764 22.382602692 14.921735764
368 1 0.0 14.921735764 22.382602692 22.382602692
369 1 0.0 22.382602692 0.0 0.0
370 1 0.0 22.382602692 0.0 7.460867882
371 1 0.0 22.382602692 0.0 14.921735764
372 1 0.0 22.382602692 0.0 22.382602692
373 1 0.0 22.382602692 7.460867882 0.0
374 1 0.0 22.382602692 7.460867882 7.460867882
375 1 0.0 22.382602692 7.460867882 14.921735764
376 1 0.0 22.382602692 7.460867882 22.382602692
377 1 0.0 22.382602692 14.921735764 0.0
378 1 0.0 22.382602692 14.921735764 7.460867882
379 1 0.0 22.382602692 14.921735764 14.921735764
380 1 0.0 22.382602692 14.921735764 22.382602692
381 1 0.0 22.382602692 22.382602692 0.0
382 1 0.0 22.382602692 22.382602692 7.460867882
383 1 0.0 22.382602692 22.382602692 14.921735764
384 1 0.0 22.382602692 22.382602692 22.382602692
385 1 0.0 5.595650673 5.595650673 1.86521697
386 1 0.0 5.595650673 5.595650673 9.326085091
387 1 0.0 5.595650673 5.595650673 16.786952972
388 1 0.0 5.595650673 5.595650673 24.247819901
389 1 0.0 5.595650673 13.056518555 1.86521697
390 1 0.0 5.595650673 13.056518555 9.326085091
391 1 0.0 5.595650673 13.056518555 16.786952972
392 1 0.0 5.595650673 13.056518555 24.247819901
393 1 0.0 5.595650673 20.51738739 1.86521697
394 1 0.0 5.595650673 20.51738739 9.326085091
395 1 0.0 5.595650673 20.51738739 16.786952972
396 1 0.0 5.595650673 20.51738739 24.247819901
397 1 0.0 5.595650673 27.978254318 1.86521697
398 1 0.0 5.595650673 27.978254318 9.326085091
399 1 0.0 5.595650673 27.978254318 16.786952972
400 1 0.0 5.595650673 27.978254318 24.247819901
401 1 0.0 13.056518555 5.595650673 1.86521697
402 1 0.0 13.056518555 5.595650673 9.326085091
403 1 0.0 13.056518555 5.595650673 16.786952972
404 1 0.0 13.056518555 5.595650673 24.247819901
405 1 0.0 13.056518555 13.056518555 1.86521697
406 1 0.0 13.056518555 13.056518555 9.326085091
407 1 0.0 13.056518555 13.056518555 16.786952972
408 1 0.0 13.056518555 13.056518555 24.247819901
409 1 0.0 13.056518555 20.51738739 1.86521697
410 1 0.0 13.056518555 20.51738739 9.326085091
411 1 0.0 13.056518555 20.51738739 16.786952972
412 1 0.0 13.056518555 20.51738739 24.247819901
413 1 0.0 13.056518555 27.978254318 1.86521697
414 1 0.0 13.056518555 27.978254318 9.326085091
415 1 0.0 13.056518555 27.978254318 16.786952972
416 1 0.0 13.056518555 27.978254318 24.247819901
417 1 0.0 20.51738739 5.595650673 1.86521697
418 1 0.0 20.51738739 5.595650673 9.326085091
419 1 0.0 20.51738739 5.595650673 16.786952972
420 1 0.0 20.51738739 5.595650673 24.247819901
421 1 0.0 20.51738739 13.056518555 1.86521697
422 1 0.0 20.51738739 13.056518555 9.326085091
423 1 0.0 20.51738739 13.056518555 16.786952972
424 1 0.0 20.51738739 13.056518555 24.247819901
425 1 0.0 20.51738739 20.51738739 1.86521697
426 1 0.0 20.51738739 20.51738739 9.326085091
427 1 0.0 20.51738739 20.51738739 16.786952972
428 1 0.0 20.51738739 20.51738739 24.247819901
429 1 0.0 20.51738739 27.978254318 1.86521697
430 1 0.0 20.51738739 27.978254318 9.326085091
431 1 0.0 20.51738739 27.978254318 16.786952972
432 1 0.0 20.51738739 27.978254318 24.247819901
433 1 0.0 27.978254318 5.595650673 1.86521697
434 1 0.0 27.978254318 5.595650673 9.326085091
435 1 0.0 27.978254318 5.595650673 16.786952972
436 1 0.0 27.978254318 5.595650673 24.247819901
437 1 0.0 27.978254318 13.056518555 1.86521697
438 1 0.0 27.978254318 13.056518555 9.326085091
439 1 0.0 27.978254318 13.056518555 16.786952972
440 1 0.0 27.978254318 13.056518555 24.247819901
441 1 0.0 27.978254318 20.51738739 1.86521697
442 1 0.0 27.978254318 20.51738739 9.326085091
443 1 0.0 27.978254318 20.51738739 16.786952972
444 1 0.0 27.978254318 20.51738739 24.247819901
445 1 0.0 27.978254318 27.978254318 1.86521697
446 1 0.0 27.978254318 27.978254318 9.326085091
447 1 0.0 27.978254318 27.978254318 16.786952972
448 1 0.0 27.978254318 27.978254318 24.247819901
449 1 0.0 0.0 3.730433941 3.730433941
450 1 0.0 0.0 3.730433941 11.191301346
451 1 0.0 0.0 3.730433941 18.652170181
452 1 0.0 0.0 3.730433941 26.113037109
453 1 0.0 0.0 11.191301346 3.730433941
454 1 0.0 0.0 11.191301346 11.191301346
455 1 0.0 0.0 11.191301346 18.652170181
456 1 0.0 0.0 11.191301346 26.113037109
457 1 0.0 0.0 18.652170181 3.730433941
458 1 0.0 0.0 18.652170181 11.191301346
459 1 0.0 0.0 18.652170181 18.652170181
460 1 0.0 0.0 18.652170181 26.113037109
461 1 0.0 0.0 26.113037109 3.730433941
462 1 0.0 0.0 26.113037109 11.191301346
463 1 0.0 0.0 26.113037109 18.652170181
464 1 0.0 0.0 26.113037109 26.113037109
465 1 0.0 7.460867882 3.730433941 3.730433941
466 1 0.0 7.460867882 3.730433941 11.191301346
467 1 0.0 7.460867882 3.730433941 18.652170181
468 1 0.0 7.460867882 3.730433941 26.113037109
469 1 0.0 7.460867882 11.191301346 3.730433941
470 1 0.0 7.460867882 11.191301346 11.191301346
471 1 0.0 7.460867882 11.191301346 18.652170181
472 1 0.0 7.460867882 11.191301346 26.113037109
473 1 0.0 7.460867882 18.652170181 3.730433941
474 1 0.0 7.460867882 18.652170181 11.191301346
475 1 0.0 7.460867882 18.652170181 18.652170181
476 1 0.0 7.460867882 18.652170181 26.113037109
477 1 0.0 7.460867882 26.113037109 3.730433941
478 1 0.0 7.460867882 26.113037109 11.191301346
479 1 0.0 7.460867882 26.113037109 18.652170181
480 1 0.0 7.460867882 26.113037109 26.113037109
481 1 0.0 14.921735764 3.730433941 3.730433941
482 1 0.0 14.921735764 3.730433941 11.191301346
483 1 0.0 14.921735764 3.730433941 18.652170181
484 1 0.0 14.921735764 3.730433941 26.113037109
485 1 0.0 14.921735764 11.191301346 3.730433941
486 1 0.0 14.921735764 11.191301346 11.191301346
487 1 0.0 14.921735764 11.191301346 18.652170181
488 1 0.0 14.921735764 11.191301346 26.113037109
489 1 0.0 14.921735764 18.652170181 3.730433941
490 1 0.0 14.921735764 18.652170181 11.191301346
491 1 0.0 14.921735764 18.652170181 18.652170181
492 1 0.0 14.921735764 18.652170181 26.113037109
493 1 0.0 14.921735764 26.113037109 3.730433941
494 1 0.0 14.921735764 26.113037109 11.191301346
495 1 0.0 14.921735764 26.113037109 18.652170181
496 1 0.0 14.921735764 26.113037109 26.113037109
497 1 0.0 22.382602692 3.730433941 3.730433941
498 1 0.0 22.382602692 3.730433941 11.191301346
499 1 0.0 22.382602692 3.730433941 18.652170181
500 1 0.0 22.382602692 3.730433941 26.113037109
501 1 0.0 22.382602692 11.191301346 3.730433941
502 1 0.0 22.382602692 11.191301346 11.191301346
503 1 0.0 22.382602692 11.191301346 18.652170181
504 1 0.0 22.382602692 11.191301346 26.113037109
505 1 0.0 22.382602692 18.652170181 3.730433941
506 1 0.0 22.382602692 18.652170181 11.191301346
507 1 0.0 22.382602692 18.652170181 18.652170181
508 1 0.0 22.382602692 18.652170181 26.113037109
509 1 0.0 22.382602692 26.113037109 3.730433941
510 1 0.0 22.382602692 26.113037109 11.191301346
511 1 0.0 22.382602692 26.113037109 18.652170181
512 1 0.0 22.382602692 26.113037109 26.113037109
513 2 0.0 6.528259277 6.528259277 0.932608485
514 2 0.0 6.528259277 6.528259277 8.393476486
515 2 0.0 6.528259277 6.528259277 15.854344368
516 2 0.0 6.528259277 6.528259277 23.31521225
517 2 0.0 6.528259277 13.989127159 0.932608485
518 2 0.0 6.528259277 13.989127159 8.393476486
519 2 0.0 6.528259277 13.989127159 15.854344368
520 2 0.0 6.528259277 13.989127159 23.31521225
521 2 0.0 6.528259277 21.449995041 0.932608485
522 2 0.0 6.528259277 21.449995041 8.393476486
523 2 0.0 6.528259277 21.449995041 15.854344368
524 2 0.0 6.528259277 21.449995041 23.31521225
525 2 0.0 6.528259277 28.910863876 0.932608485
526 2 0.0 6.528259277 28.910863876 8.393476486
527 2 0.0 6.528259277 28.910863876 15.854344368
528 2 0.0 6.528259277 28.910863876 23.31521225
529 2 0.0 13.989127159 6.528259277 0.932608485
530 2 0.0 13.989127159 6.528259277 8.393476486
531 2 0.0 13.989127159 6.528259277 15.854344368
532 2 0.0 13.989127159 6.528259277 23.31521225
533 2 0.0 13.989127159 13.989127159 0.932608485
534 2 0.0 13.989127159 13.989127159 8.393476486
535 2 0.0 13.989127159 13.989127159 15.854344368
536 2 0.0 13.989127159 13.989127159 23.31521225
537 2 0.0 13.989127159 21.449995041 0.932608485
538 2 0.0 13.989127159 21.449995041 8.393476486
539 2 0.0 13.989127159 21.449995041 15.854344368
540 2 0.0 13.989127159 21.449995041 23.31521225
541 2 0.0 13.989127159 28.910863876 0.932608485
542 2 0.0 13.989127159 28.910863876 8.393476486
543 2 0.0 13.989127159 28.910863876 15.854344368
544 2 0.0 13.989127159 28.910863876 23.31521225
545 2 0.0 21.449995041 6.528259277 0.932608485
546 2 0.0 21.449995041 6.528259277 8.393476486
547 2 0.0 21.449995041 6.528259277 15.854344368
548 2 0.0 21.449995041 6.528259277 23.31521225
549 2 0.0 21.449995041 13.989127159 0.932608485
550 2 0.0 21.449995041 13.989127159 8.393476486
551 2 0.0 21.449995041 13.989127159 15.854344368
552 2 0.0 21.449995041 13.989127159 23.31521225
553 2 0.0 21.449995041 21.449995041 0.932608485
554 2 0.0 21.449995041 21.449995041 8.393476486
555 2 0.0 21.449995041 21.449995041 15.854344368
556 2 0.0 21.449995041 21.449995041 23.31521225
557 2 0.0 21.449995041 28.910863876 0.932608485
558 2 0.0 21.449995041 28.910863876 8.393476486
559 2 0.0 21.449995041 28.910863876 15.854344368
560 2 0.0 21.449995041 28.910863876 23.31521225
561 2 0.0 28.910863876 6.528259277 0.932608485
562 2 0.0 28.910863876 6.528259277 8.393476486
563 2 0.0 28.910863876 6.528259277 15.854344368
564 2 0.0 28.910863876 6.528259277 23.31521225
565 2 0.0 28.910863876 13.989127159 0.932608485
566 2 0.0 28.910863876 13.989127159 8.393476486
567 2 0.0 28.910863876 13.989127159 15.854344368
568 2 0.0 28.910863876 13.989127159 23.31521225
569 2 0.0 28.910863876 21.449995041 0.932608485
570 2 0.0 28.910863876 21.449995041 8.393476486
571 2 0.0 28.910863876 21.449995041 15.854344368
572 2 0.0 28.910863876 21.449995041 23.31521225
573 2 0.0 28.910863876 28.910863876 0.932608485
574 2 0.0 28.910863876 28.910863876 8.393476486
575 2 0.0 28.910863876 28.910863876 15.854344368
576 2 0.0 28.910863876 28.910863876 23.31521225
577 2 0.0 2.797825336 0.932608485 2.797825336
578 2 0.0 2.797825336 0.932608485 10.258693695
579 2 0.0 2.797825336 0.932608485 17.719560623
580 2 0.0 2.797825336 0.932608485 25.180429459
581 2 0.0 2.797825336 8.393476486 2.797825336
582 2 0.0 2.797825336 8.393476486 10.258693695
583 2 0.0 2.797825336 8.393476486 17.719560623
584 2 0.0 2.797825336 8.393476486 25.180429459
585 2 0.0 2.797825336 15.854344368 2.797825336
586 2 0.0 2.797825336 15.854344368 10.258693695
587 2 0.0 2.797825336 15.854344368 17.719560623
588 2 0.0 2.797825336 15.854344368 25.180429459
589 2 0.0 2.797825336 23.31521225 2.797825336
590 2 0.0 2.797825336 23.31521225 10.258693695
591 2 0.0 2.797825336 23.31521225 17.719560623
592 2 0.0 2.797825336 23.31521225 25.180429459
593 2 0.0 10.258693695 0.932608485 2.797825336
594 2 0.0 10.258693695 0.932608485 10.258693695
595 2 0.0 10.258693695 0.932608485 17.719560623
596 2 0.0 10.258693695 0.932608485 25.180429459
597 2 0.0 10.258693695 8.393476486 2.797825336
598 2 0.0 10.258693695 8.393476486 10.258693695
599 2 0.0 10.258693695 8.393476486 17.719560623
600 2 0.0 10.258693695 8.393476486 25.180429459
601 2 0.0 10.258693695 15.854344368 2.797825336
602 2 0.0 10.258693695 15.854344368 10.258693695
603 2 0.0 10.258693695 15.854344368 17.719560623
604 2 0.0 10.258693695 15.854344368 25.180429459
605 2 0.0 10.258693695 23.31521225 2.797825336
606 2 0.0 10.258693695 23.31521225 10.258693695
607 2 0.0 10.258693695 23.31521225 17.719560623
608 2 0.0 10.258693695 23.31521225 25.180429459
609 2 0.0 17.719560623 0.932608485 2.797825336
610 2 0.0 17.719560623 0.932608485 10.258693695
611 2 0.0 17.719560623 0.932608485 17.719560623
612 2 0.0 17.719560623 0.932608485 25.180429459
613 2 0.0 17.719560623 8.393476486 2.797825336
614 2 0.0 17.719560623 8.393476486 10.258693695
615 2 0.0 17.719560623 8.393476486 17.719560623
616 2 0.0 17.719560623 8.393476486 25.180429459
617 2 0.0 17.719560623 15.854344368 2.797825336
618 2 0.0 17.719560623 15.854344368 10.258693695
619 2 0.0 17.719560623 15.854344368 17.719560623
620 2 0.0 17.719560623 15.854344368 25.180429459
621 2 0.0 17.719560623 23.31521225 2.797825336
622 2 0.0 17.719560623 23.31521225 10.258693695
623 2 0.0 17.719560623 23.31521225 17.719560623
624 2 0.0 17.719560623 23.31521225 25.180429459
625 2 0.0 25.180429459 0.932608485 2.797825336
626 2 0.0 25.180429459 0.932608485 10.258693695
627 2 0.0 25.180429459 0.932608485 17.719560623
628 2 0.0 25.180429459 0.932608485 25.180429459
629 2 0.0 25.180429459 8.393476486 2.797825336
630 2 0.0 25.180429459 8.393476486 10.258693695
631 2 0.0 25.180429459 8.393476486 17.719560623
632 2 0.0 25.180429459 8.393476486 25.180429459