LAMMPS data file via write_data, version 14 May 2016, timestep = 32

384 atoms
2 atom types

1.4472656124061947e-01 1.8468362046559378e+01 xlo xhi
1.4472656124062031e-01 1.8468362046559378e+01 ylo yhi
-2.2961321088505158e-02 1.1899773302288501e+01 zlo zhi

Masses

1 47.867
2 16

Atoms # charge

1 1 1.4070411005843659e+00 2.4351813483646860e+00 2.4351813483743463e+00 1.4673805304763647e+00 0 0 0
2 1 1.4070412261898346e+00 2.4351813486848952e+00 2.4351813486945080e+00 4.4480641511000005e+00 0 0 0
3 1 1.4070413532680281e+00 2.4351813490055609e+00 2.4351813490148562e+00 7.4287478421212825e+00 0 0 0
4 1 1.4070412261193574e+00 2.4351813486853469e+00 2.4351813486946865e+00 1.0409431202513998e+01 0 0 0
65 1 1.4070383643201962e+00 1.4472663926007742e-01 1.4472663926998236e-01 1.1899773151557797e+01 0 0 -1
66 1 1.4070389941143957e+00 1.4472663925206261e-01 1.4472663926198562e-01 2.9577223645899533e+00 0 0 0
67 1 1.4070385424590179e+00 1.4472663936828997e-01 1.4472663937841398e-01 5.9384060205972071e+00 0 0 0
68 1 1.4070391722080564e+00 1.4472663935918476e-01 1.4472663936929106e-01 8.9190894954904696e+00 0 0 0
69 1 1.4070397306576172e+00 1.4472671067206785e-01 4.7256354190295777e+00 1.1899773151254184e+01 0 0 -1
70 1 1.4070403603487069e+00 1.4472671067281354e-01 4.7256354190306862e+00 2.9577223648931592e+00 0 0 0
71 1 1.4070399108640010e+00 1.4472671074855006e-01 4.7256354189739120e+00 5.9384060209008558e+00 0 0 0
72 1 1.4070405404961435e+00 1.4472671074841603e-01 4.7256354189758412e+00 8.9190894951872206e+00 0 0 0
81 1 1.4070397305779905e+00 4.7256354190294863e+00 1.4472671067187684e-01 1.1899773151253822e+01 0 0 -1
82 1 1.4070403602698065e+00 4.7256354190306338e+00 1.4472671067266946e-01 2.9577223648932063e+00 0 0 0
83 1 1.4070399107810625e+00 4.7256354189740843e+00 1.4472671074869783e-01 5.9384060209012146e+00 0 0 0
84 1 1.4070405404125663e+00 4.7256354189759664e+00 1.4472671074851254e-01 8.9190894951871780e+00 0 0 0
85 1 1.4070413152590366e+00 4.7256354623527601e+00 4.7256354623629031e+00 1.1899773150950013e+01 0 0 -1
86 1 1.4070419448266116e+00 4.7256354623627601e+00 4.7256354623728631e+00 2.9577223651965006e+00 0 0 0
87 1 1.4070414975329486e+00 4.7256354622656431e+00 4.7256354622755685e+00 5.9384060212050649e+00 0 0 0
88 1 1.4070421270230271e+00 4.7256354622765278e+00 4.7256354622865038e+00 8.9190894948838455e+00 0 0 0
129 2 -7.0351917535383302e-01 1.0497628453751853e+00 3.8205991003796509e+00 1.4673804392639120e+00 0 0 0
130 2 -7.0351905733265940e-01 1.0497628178339653e+00 3.8205991277717222e+00 4.4480640576405257e+00 0 0 0
131 2 -7.0351893827046685e-01 1.0497627903023032e+00 3.8205991551539897e+00 7.4287477510492517e+00 0 0 0
132 2 -7.0351905739506937e-01 1.0497628178639302e+00 3.8205991277415157e+00 1.0409431472788942e+01 0 0 0
145 2 -7.0351876853345907e-01 5.6306719774081202e+00 3.8205989861118361e+00 1.4673804392655292e+00 0 0 0
146 2 -7.0351864763115379e-01 5.6306719500401679e+00 3.8205990134869863e+00 4.4480640574718544e+00 0 0 0
147 2 -7.0351852568909157e-01 5.6306719226817465e+00 3.8205990408521711e+00 7.4287477510502988e+00 0 0 0
148 2 -7.0351864769478223e-01 5.6306719500701279e+00 3.8205990134565946e+00 1.0409431472954953e+01 0 0 0
193 2 -7.0351917543311870e-01 3.8205991003780873e+00 1.0497628453768295e+00 1.4673804392639729e+00 0 0 0
194 2 -7.0351905741393761e-01 3.8205991277700830e+00 1.0497628178355765e+00 4.4480640576404067e+00 0 0 0
195 2 -7.0351893835474388e-01 3.8205991551522485e+00 1.0497627903039446e+00 7.4287477510491922e+00 0 0 0
196 2 -7.0351905747736154e-01 3.8205991277398481e+00 1.0497628178656058e+00 1.0409431472789061e+01 0 0 0
197 2 -7.0351876846448169e-01 3.8205989861123433e+00 5.6306719774076255e+00 1.4673804392655487e+00 0 0 0
198 2 -7.0351864756180005e-01 3.8205990134874108e+00 5.6306719500397451e+00 4.4480640574718864e+00 0 0 0
199 2 -7.0351852561825834e-01 3.8205990408524766e+00 5.6306719226813335e+00 7.4287477510502802e+00 0 0 0
200 2 -7.0351864762431859e-01 3.8205990134569880e+00 5.6306719500696367e+00 1.0409431472954923e+01 0 0 0
257 2 -7.0352018583328302e-01 1.5301444097397965e+00 1.5301444097322905e+00 1.1899773255803257e+01 0 0 -1
258 2 -7.0351973929102063e-01 1.5301444164714797e+00 1.5301444164639246e+00 2.9577222630950510e+00 0 0 0
259 2 -7.0352002443494233e-01 1.5301444331717353e+00 1.5301444331641716e+00 5.9384059188782388e+00 0 0 0
260 2 -7.0351957796366282e-01 1.5301444399355284e+00 1.5301444399280133e+00 8.9190895999279505e+00 0 0 0
261 2 -7.0352096216601367e-01 1.5301444067239791e+00 6.1110532263026673e+00 1.1899773255928494e+01 0 0 -1
262 2 -7.0352051570044849e-01 1.5301444134583750e+00 6.1110532330400105e+00 2.9577222629698419e+00 0 0 0
263 2 -7.0352079560360337e-01 1.5301444301028051e+00 6.1110532500026231e+00 5.9384059187529541e+00 0 0 0
264 2 -7.0352034919067441e-01 1.5301444368698445e+00 6.1110532567722951e+00 8.9190896000531286e+00 0 0 0
273 2 -7.0352096228155658e-01 6.1110532263024018e+00 1.5301444067237719e+00 1.1899773255928613e+01 0 0 -1
274 2 -7.0352051581461428e-01 6.1110532330396499e+00 1.5301444134580844e+00 2.9577222629697495e+00 0 0 0
275 2 -7.0352079572169079e-01 6.1110532500023460e+00 1.5301444301025802e+00 5.9384059187528315e+00 0 0 0
276 2 -7.0352034931007379e-01 6.1110532567721112e+00 1.5301444368696990e+00 8.9190896000532174e+00 0 0 0
277 2 -7.0352134373654862e-01 6.1110532194681637e+00 6.1110532194605680e+00 1.1899773256054514e+01 0 0 -1
278 2 -7.0352089735283652e-01 6.1110532262084414e+00 6.1110532262009105e+00 2.9577222628441620e+00 0 0 0
279 2 -7.0352117201847475e-01 6.1110532431153324e+00 6.1110532431077607e+00 5.9384059186268949e+00 0 0 0
280 2 -7.0352072568982205e-01 6.1110532498884949e+00 6.1110532498808618e+00 8.9190896001787721e+00 0 0 0
321 2 -7.0351775770032887e-01 3.3402179241211218e+00 3.3402179241135590e+00 1.1899773256161511e+01 0 0 -1
322 2 -7.0351731123952121e-01 3.3402179173941597e+00 3.3402179173865640e+00 2.9577222627368771e+00 0 0 0
323 2 -7.0351759453515972e-01 3.3402179005197996e+00 3.3402179005122838e+00 5.9384059185199103e+00 0 0 0
324 2 -7.0351714815987920e-01 3.3402178937598421e+00 3.3402178937523606e+00 8.9190896002860693e+00 0 0 0
17 1 1.4070392489011352e+00 7.0160900184452526e+00 2.4351810799992197e+00 1.4673805304795311e+00 0 0 0
18 1 1.4070393783398298e+00 7.0160900181957819e+00 2.4351810802735128e+00 4.4480641510043570e+00 0 0 0
19 1 1.4070395092719732e+00 7.0160900179456576e+00 2.4351810805484879e+00 7.4287478421253210e+00 0 0 0
20 1 1.4070393782898707e+00 7.0160900181952037e+00 2.4351810802741243e+00 1.0409431202602441e+01 0 0 0
33 1 1.4070386302187881e+00 1.1596999184838761e+01 2.4351814538848169e+00 1.4673805304913383e+00 0 0 0
34 1 1.4070387621428164e+00 1.1596999185126542e+01 2.4351814542448431e+00 4.4480641509728187e+00 0 0 0
35 1 1.4070388955915507e+00 1.1596999185415061e+01 2.4351814546051416e+00 7.4287478421369197e+00 0 0 0
36 1 1.4070387621242870e+00 1.1596999185127277e+01 2.4351814542451033e+00 1.0409431202610660e+01 0 0 0
97 1 1.4070402823593209e+00 9.3065442402164535e+00 1.4472671599738382e-01 1.1899773151600899e+01 0 0 -1
98 1 1.4070409120891840e+00 9.3065442402150627e+00 1.4472671599367354e-01 2.9577223645468953e+00 0 0 0
99 1 1.4070404671027992e+00 9.3065442401915188e+00 1.4472671609225030e-01 5.9384060205541305e+00 0 0 0
100 1 1.4070410968271367e+00 9.3065442401900498e+00 1.4472671608724849e-01 8.9190894955335693e+00 0 0 0
101 1 1.4070414164752327e+00 9.3065442568164816e+00 4.7256355758901840e+00 1.1899773151296651e+01 0 0 -1
102 1 1.4070420460652950e+00 9.3065442568240222e+00 4.7256355758955007e+00 2.9577223648504503e+00 0 0 0
103 1 1.4070416032980151e+00 9.3065442567595262e+00 4.7256355758213893e+00 5.9384060208584089e+00 0 0 0
104 1 1.4070422328546415e+00 9.3065442567670456e+00 4.7256355758274085e+00 8.9190894952299811e+00 0 0 0
161 2 -7.0351845920841660e-01 1.0211580568560278e+01 3.8205991668628916e+00 1.4673804392625245e+00 0 0 0
162 2 -7.0351833426777588e-01 1.0211580541028770e+01 3.8205991942693847e+00 4.4480640576610027e+00 0 0 0
163 2 -7.0351820824602884e-01 1.0211580513506826e+01 3.8205992216658986e+00 7.4287477510474762e+00 0 0 0
164 2 -7.0351833429006705e-01 1.0211580541058781e+01 3.8205991942389952e+00 1.0409431472771754e+01 0 0 0
209 2 -7.0352004931394896e-01 8.4015079268515525e+00 1.0497630449575397e+00 1.4673804392613587e+00 0 0 0
210 2 -7.0351992663167195e-01 8.4015079543614544e+00 1.0497630174283392e+00 4.4480640578207558e+00 0 0 0
211 2 -7.0351980286874127e-01 8.4015079818619665e+00 1.0497629899087464e+00 7.4287477510469779e+00 0 0 0
212 2 -7.0351992665461371e-01 8.4015079543316613e+00 1.0497630174583421e+00 1.0409431472613557e+01 0 0 0
213 2 -7.0351963967534326e-01 8.4015077826120272e+00 5.6306721400831377e+00 1.4673804392629954e+00 0 0 0
214 2 -7.0351951411018532e-01 8.4015078101048264e+00 5.6306721127275736e+00 4.4480640576521857e+00 0 0 0
215 2 -7.0351938747564469e-01 8.4015078375882553e+00 5.6306720853813843e+00 7.4287477510478377e+00 0 0 0
216 2 -7.0351951414449998e-01 8.4015078100750422e+00 5.6306721127573542e+00 1.0409431472779625e+01 0 0 0
289 2 -7.0352042108441482e-01 1.0691962187591013e+01 1.5301446213983092e+00 1.1899773255713429e+01 0 0 -1
290 2 -7.0351997472006400e-01 1.0691962194314630e+01 1.5301446281249313e+00 2.9577222631849844e+00 0 0 0
291 2 -7.0352024937540281e-01 1.0691962211034761e+01 1.5301446448080898e+00 5.9384059189681029e+00 0 0 0
292 2 -7.0351980300391959e-01 1.0691962217790207e+01 1.5301446515671409e+00 8.9190895998380615e+00 0 0 0
293 2 -7.0352079163611236e-01 1.0691962238823912e+01 6.1110533858641540e+00 1.1899773255838905e+01 0 0 -1
294 2 -7.0352034534748287e-01 1.0691962245550590e+01 6.1110533925968227e+00 2.9577222630597264e+00 0 0 0
295 2 -7.0352061475232153e-01 1.0691962262215027e+01 6.1110534095429765e+00 5.9384059188425837e+00 0 0 0
296 2 -7.0352016846471210e-01 1.0691962268973910e+01 6.1110534163080947e+00 8.9190895999632875e+00 0 0 0
337 2 -7.0351934187757070e-01 7.9211265699876652e+00 3.3402173755989053e+00 1.1899773255968425e+01 0 0 -1
338 2 -7.0351889544668933e-01 7.9211265632635257e+00 3.3402173688693213e+00 2.9577222629300408e+00 0 0 0
339 2 -7.0351917209969494e-01 7.9211265466383978e+00 3.3402173519583962e+00 5.9384059187130651e+00 0 0 0
340 2 -7.0351872571064566e-01 7.9211265398819197e+00 3.3402173451961459e+00 8.9190896000929563e+00 0 0 0
49 1 1.4070416368234748e+00 1.6177907423335949e+01 2.4351809339658312e+00 1.4673805304800047e+00 0 0 0
50 1 1.4070417649543316e+00 1.6177907423153343e+01 2.4351809341331156e+00 4.4480641509744121e+00 0 0 0
51 1 1.4070418945896745e+00 1.6177907422969596e+01 2.4351809343008477e+00 7.4287478421261444e+00 0 0 0
52 1 1.4070417649148765e+00 1.6177907423152181e+01 2.4351809341335828e+00 1.0409431202631133e+01 0 0 0
113 1 1.4070369837896153e+00 1.3887453269556877e+01 1.4472662781457621e-01 1.1899773151384700e+01 0 0 -1
114 1 1.4070376131549167e+00 1.3887453269535396e+01 1.4472662779694040e-01 2.9577223647618398e+00 0 0 0
115 1 1.4070371660706524e+00 1.3887453269524515e+01 1.4472662793597627e-01 5.9384060207703806e+00 0 0 0
116 1 1.4070377954459743e+00 1.3887453269503313e+01 1.4472662791723517e-01 8.9190894953186408e+00 0 0 0
117 1 1.4070381679675386e+00 1.3887453314382094e+01 4.7256355144524242e+00 1.1899773151080684e+01 0 0 -1
118 1 1.4070387972148100e+00 1.3887453314369493e+01 4.7256355144437530e+00 2.9577223650651940e+00 0 0 0
119 1 1.4070383523260406e+00 1.3887453314317927e+01 4.7256355144102340e+00 5.9384060210744245e+00 0 0 0
120 1 1.4070389815575197e+00 1.3887453314305741e+01 4.7256355144025592e+00 8.9190894950152479e+00 0 0 0
177 2 -7.0351965467222544e-01 1.4792489798848413e+01 3.8205986359856481e+00 1.4673804392669765e+00 0 0 0
178 2 -7.0351953322457195e-01 1.4792489771474710e+01 3.8205986633607365e+00 4.4480640574884145e+00 0 0 0
179 2 -7.0351941069707358e-01 1.4792489744110638e+01 3.8205986907261309e+00 7.4287477510514801e+00 0 0 0
180 2 -7.0351953324843208e-01 1.4792489771504746e+01 3.8205986633306535e+00 1.0409431472935825e+01 0 0 0
225 2 -7.0352341773152682e-01 1.2982416727916029e+01 1.0497631219689973e+00 1.4673804392633918e+00 0 0 0
226 2 -7.0352329527762070e-01 1.2982416755304506e+01 1.0497630944565490e+00 4.4480640576001740e+00 0 0 0
227 2 -7.0352317171924184e-01 1.2982416782683272e+01 1.0497630669539868e+00 7.4287477510483164e+00 0 0 0
228 2 -7.0352329527683899e-01 1.2982416755274366e+01 1.0497630944868590e+00 1.0409431472830878e+01 0 0 0
229 2 -7.0352293607096283e-01 1.2982416549640439e+01 5.6306722061795025e+00 1.4673804392650509e+00 0 0 0
230 2 -7.0352281072542056e-01 1.2982416577011774e+01 5.6306721788408804e+00 4.4480640574310781e+00 0 0 0
231 2 -7.0352268428582365e-01 1.2982416604373331e+01 5.6306721515116482e+00 7.4287477510492268e+00 0 0 0
232 2 -7.0352281073491119e-01 1.2982416576981549e+01 5.6306721788707108e+00 1.0409431472997401e+01 0 0 0
241 2 -7.0352003662451201e-01 1.7563325931713319e+01 1.0497629381992521e+00 1.4673804392620762e+00 0 0 0
242 2 -7.0351991811518699e-01 1.7563325959224883e+01 1.0497629106374795e+00 4.4480640578068620e+00 0 0 0
243 2 -7.0351979854051760e-01 1.7563325986727413e+01 1.0497628830855228e+00 7.4287477510470996e+00 0 0 0
244 2 -7.0351991815377712e-01 1.7563325959195424e+01 1.0497629106677302e+00 1.0409431472626599e+01 0 0 0
245 2 -7.0351969993983010e-01 1.7563325784531010e+01 5.6306720566652757e+00 1.4673804392636653e+00 0 0 0
246 2 -7.0351957854558977e-01 1.7563325812025642e+01 5.6306720292770374e+00 4.4480640576377422e+00 0 0 0
247 2 -7.0351945608420141e-01 1.7563325839511048e+01 5.6306720018982226e+00 7.4287477510482525e+00 0 0 0
248 2 -7.0351957858206815e-01 1.7563325811995956e+01 5.6306720293069112e+00 1.0409431472792967e+01 0 0 0
305 2 -7.0352026042337523e-01 1.5272871034078463e+01 1.5301446704993171e+00 1.1899773255929258e+01 0 0 -1
306 2 -7.0351981414529385e-01 1.5272871040808283e+01 1.5301446772249780e+00 2.9577222629696740e+00 0 0 0
307 2 -7.0352009441821073e-01 1.5272871057693530e+01 1.5301446937991614e+00 5.9384059187523075e+00 0 0 0
308 2 -7.0351964815071288e-01 1.5272871064455904e+01 1.5301447005570645e+00 8.9190896000534110e+00 0 0 0
309 2 -7.0352080226935565e-01 1.5272871088853512e+01 6.1110534408222081e+00 1.1899773256054148e+01 0 0 -1
310 2 -7.0352035605937357e-01 1.5272871095586085e+01 6.1110534475536626e+00 2.9577222628447544e+00 0 0 0
311 2 -7.0352063108531460e-01 1.5272871112415514e+01 6.1110534643908183e+00 5.9384059186273719e+00 0 0 0
312 2 -7.0352018487816215e-01 1.5272871119181229e+01 6.1110534711546594e+00 8.9190896001783013e+00 0 0 0
353 2 -7.0352219631283330e-01 1.2502035721120055e+01 3.3402177010253014e+00 1.1899773256083716e+01 0 0 -1
354 2 -7.0352175013087792e-01 1.2502035714388388e+01 3.3402176942912924e+00 2.9577222628147757e+00 0 0 0
355 2 -7.0352202528440289e-01 1.2502035697581684e+01 3.3402176774481283e+00 5.9384059185977778e+00 0 0 0
356 2 -7.0352157910322843e-01 1.2502035690816911e+01 3.3402176706811435e+00 8.9190896002082400e+00 0 0 0
369 2 -7.0351804113087535e-01 1.7082944309715625e+01 3.3402174914760856e+00 1.1899773255897939e+01 0 0 -1
370 2 -7.0351759473611275e-01 1.7082944302990327e+01 3.3402174847473822e+00 2.9577222630004685e+00 0 0 0
371 2 -7.0351787591095771e-01 1.7082944286291600e+01 3.3402174677864753e+00 5.9384059187834497e+00 0 0 0
372 2 -7.0351742956139762e-01 1.7082944279534519e+01 3.3402174610249453e+00 8.9190896000224456e+00 0 0 0
5 1 1.4070392490050914e+00 2.4351810799991149e+00 7.0160900184452482e+00 1.4673805304794589e+00 0 0 0
6 1 1.4070393784442941e+00 2.4351810802734430e+00 7.0160900181957784e+00 4.4480641510040577e+00 0 0 0
7 1 1.4070395093788668e+00 2.4351810805486376e+00 7.0160900179458956e+00 7.4287478421253912e+00 0 0 0
8 1 1.4070393783962756e+00 2.4351810802742442e+00 7.0160900181954426e+00 1.0409431202602743e+01 0 0 0
9 1 1.4070386302199545e+00 2.4351814538942320e+00 1.1596999184829267e+01 1.4673805304912655e+00 0 0 0
10 1 1.4070387621414879e+00 2.4351814542543098e+00 1.1596999185116960e+01 4.4480641509726953e+00 0 0 0
11 1 1.4070388955897812e+00 2.4351814546149351e+00 1.1596999185405098e+01 7.4287478421369988e+00 0 0 0
12 1 1.4070387621250804e+00 2.4351814542548489e+00 1.1596999185117388e+01 1.0409431202610785e+01 0 0 0
73 1 1.4070402823587591e+00 1.4472671600782291e-01 9.3065442402064775e+00 1.1899773151600858e+01 0 0 -1
74 1 1.4070409120873821e+00 1.4472671600406606e-01 9.3065442402050920e+00 2.9577223645468371e+00 0 0 0
75 1 1.4070404671023744e+00 1.4472671610238599e-01 9.3065442401816370e+00 5.9384060205541678e+00 0 0 0
76 1 1.4070410968280032e+00 1.4472671609742879e-01 9.3065442401801821e+00 8.9190894955336208e+00 0 0 0
89 1 1.4070414165582583e+00 4.7256355758897293e+00 9.3065442568162950e+00 1.1899773151296269e+01 0 0 -1
90 1 1.4070420461466757e+00 4.7256355758951267e+00 9.3065442568238677e+00 2.9577223648504645e+00 0 0 0
91 1 1.4070416033791304e+00 4.7256355758212889e+00 9.3065442567595582e+00 5.9384060208587925e+00 0 0 0
92 1 1.4070422329372556e+00 4.7256355758272335e+00 9.3065442567670544e+00 8.9190894952299615e+00 0 0 0
133 2 -7.0352004925894585e-01 1.0497630449568871e+00 8.4015079268520303e+00 1.4673804392613932e+00 0 0 0
134 2 -7.0351992657611107e-01 1.0497630174277730e+00 8.4015079543618860e+00 4.4480640578207984e+00 0 0 0
135 2 -7.0351980281041016e-01 1.0497629899082024e+00 8.4015079818622915e+00 7.4287477510469468e+00 0 0 0
136 2 -7.0351992659679430e-01 1.0497630174577119e+00 8.4015079543320308e+00 1.0409431472613511e+01 0 0 0
149 2 -7.0351963959304475e-01 5.6306721400815549e+00 8.4015077826138249e+00 1.4673804392630612e+00 0 0 0
150 2 -7.0351951402897817e-01 5.6306721127259349e+00 8.4015078101065956e+00 4.4480640576521129e+00 0 0 0
151 2 -7.0351938739390074e-01 5.6306720853797634e+00 8.4015078375899463e+00 7.4287477510477693e+00 0 0 0
152 2 -7.0351951406168478e-01 5.6306721127557902e+00 8.4015078100767706e+00 1.0409431472779696e+01 0 0 0
201 2 -7.0351845913797695e-01 3.8205991668647190e+00 1.0211580568558691e+01 1.4673804392626160e+00 0 0 0
202 2 -7.0351833419945620e-01 3.8205991942711446e+00 1.0211580541027166e+01 4.4480640576609671e+00 0 0 0
203 2 -7.0351820817748278e-01 3.8205992216675835e+00 1.0211580513505265e+01 7.4287477510473856e+00 0 0 0
204 2 -7.0351833421939269e-01 3.8205991942407485e+00 1.0211580541057232e+01 1.0409431472771784e+01 0 0 0
265 2 -7.0352042108294255e-01 1.5301446213907643e+00 1.0691962187598627e+01 1.1899773255713429e+01 0 0 -1
266 2 -7.0351997472044547e-01 1.5301446281174449e+00 1.0691962194322180e+01 2.9577222631850293e+00 0 0 0
267 2 -7.0352024937666024e-01 1.5301446448005656e+00 1.0691962211042377e+01 5.9384059189681020e+00 0 0 0
268 2 -7.0351980300331896e-01 1.5301446515595625e+00 1.0691962217797876e+01 8.9190895998380135e+00 0 0 0
281 2 -7.0352079151980940e-01 6.1110533858645848e+00 1.0691962238824281e+01 1.1899773255839007e+01 0 0 -1
282 2 -7.0352034523224671e-01 6.1110533925971522e+00 1.0691962245550883e+01 2.9577222630596789e+00 0 0 0
283 2 -7.0352061463904392e-01 6.1110534095433184e+00 1.0691962262215393e+01 5.9384059188424834e+00 0 0 0
284 2 -7.0352016835047360e-01 6.1110534163085504e+00 1.0691962268974359e+01 8.9190895999633337e+00 0 0 0
325 2 -7.0351934175965403e-01 3.3402173755986113e+00 7.9211265699873090e+00 1.1899773255968434e+01 0 0 -1
326 2 -7.0351889533051648e-01 3.3402173688690810e+00 7.9211265632632584e+00 2.9577222629301283e+00 0 0 0
327 2 -7.0351917198206315e-01 3.3402173519580138e+00 7.9211265466380061e+00 5.9384059187130571e+00 0 0 0
328 2 -7.0351872559134776e-01 3.3402173451957093e+00 7.9211265398814472e+00 8.9190896000928674e+00 0 0 0
21 1 1.4070379379628415e+00 7.0160897940249098e+00 7.0160897940342970e+00 1.4673805304825109e+00 0 0 0
22 1 1.4070380712263579e+00 7.0160897937296944e+00 7.0160897937391304e+00 4.4480641509077667e+00 0 0 0
23 1 1.4070382059929400e+00 7.0160897934341460e+00 7.0160897934439275e+00 7.4287478421294866e+00 0 0 0
24 1 1.4070380711854291e+00 7.0160897937293720e+00 7.0160897937391011e+00 1.0409431202691891e+01 0 0 0
25 1 1.4070375815350058e+00 7.0160902638509377e+00 1.1596998922298276e+01 1.4673805304944336e+00 0 0 0
26 1 1.4070377172953974e+00 7.0160902636417593e+00 1.1596998922540093e+01 4.4480641508761147e+00 0 0 0
27 1 1.4070378545894417e+00 7.0160902634318596e+00 1.1596998922782864e+01 7.4287478421410880e+00 0 0 0
28 1 1.4070377172852804e+00 7.0160902636410984e+00 1.1596998922540978e+01 1.0409431202700109e+01 0 0 0
37 1 1.4070375814311753e+00 1.1596998922298051e+01 7.0160902638508773e+00 1.4673805304943754e+00 0 0 0
38 1 1.4070377171932167e+00 1.1596998922539958e+01 7.0160902636416722e+00 4.4480641508758865e+00 0 0 0
39 1 1.4070378544882136e+00 1.1596998922783012e+01 7.0160902634320133e+00 7.4287478421411501e+00 0 0 0
40 1 1.4070377171825785e+00 1.1596998922541045e+01 7.0160902636412894e+00 1.0409431202700333e+01 0 0 0
41 1 1.4070382583356595e+00 1.1596999347861306e+01 1.1596999347871007e+01 1.4673805305063561e+00 0 0 0
42 1 1.4070383965950084e+00 1.1596999348189081e+01 1.1596999348198747e+01 4.4480641508432912e+00 0 0 0
43 1 1.4070385364276170e+00 1.1596999348517732e+01 1.1596999348527005e+01 7.4287478421527711e+00 0 0 0
44 1 1.4070383966245348e+00 1.1596999348189945e+01 1.1596999348199269e+01 1.0409431202709428e+01 0 0 0
105 1 1.4070426824592119e+00 9.3065443979949283e+00 9.3065443980045988e+00 1.1899773151643600e+01 0 0 -1
106 1 1.4070433121107255e+00 9.3065443979977776e+00 9.3065443980074924e+00 2.9577223645038830e+00 0 0 0
107 1 1.4070428738199061e+00 9.3065443979567064e+00 9.3065443979665652e+00 5.9384060205114473e+00 0 0 0
108 1 1.4070435034813611e+00 9.3065443979593017e+00 9.3065443979691178e+00 8.9190894955766318e+00 0 0 0
165 2 -7.0351823243458700e-01 1.0211580697415966e+01 8.4015079520836871e+00 1.4673804392600458e+00 0 0 0
166 2 -7.0351810283181637e-01 1.0211580669896634e+01 8.4015079796080894e+00 4.4480640578412753e+00 0 0 0
167 2 -7.0351797211970990e-01 1.0211580642386577e+01 8.4015080071229828e+00 7.4287477510449191e+00 0 0 0
168 2 -7.0351810282623206e-01 1.0211580669926324e+01 8.4015079795781578e+00 1.0409431472596514e+01 0 0 0
217 2 -7.0351823236608158e-01 8.4015079520839357e+00 1.0211580697415647e+01 1.4673804392600340e+00 0 0 0
218 2 -7.0351810276425131e-01 8.4015079796084393e+00 1.0211580669896245e+01 4.4480640578412194e+00 0 0 0
219 2 -7.0351797205256139e-01 8.4015080071234429e+00 1.0211580642386199e+01 7.4287477510449325e+00 0 0 0
220 2 -7.0351810275820759e-01 8.4015079795785290e+00 1.0211580669926022e+01 1.0409431472596575e+01 0 0 0
297 2 -7.0351882059472548e-01 1.0691962416111515e+01 1.0691962416104070e+01 1.1899773255623682e+01 0 0 -1
298 2 -7.0351837438112730e-01 1.0691962422830267e+01 1.0691962422822762e+01 2.9577222632747264e+00 0 0 0
299 2 -7.0351863854878727e-01 1.0691962439534651e+01 1.0691962439527178e+01 5.9384059190578862e+00 0 0 0
300 2 -7.0351819227052981e-01 1.0691962446285492e+01 1.0691962446278087e+01 8.9190895997483608e+00 0 0 0
341 2 -7.0351998130610927e-01 7.9211260204121237e+00 7.9211260204046745e+00 1.1899773255776221e+01 0 0 -1
342 2 -7.0351953488837238e-01 7.9211260136853445e+00 7.9211260136779371e+00 2.9577222631225650e+00 0 0 0
343 2 -7.0351980492823196e-01 7.9211259970234487e+00 7.9211259970159196e+00 5.9384059189053380e+00 0 0 0
344 2 -7.0351935852287750e-01 7.9211259902648585e+00 7.9211259902572877e+00 8.9190895999005058e+00 0 0 0
53 1 1.4070401950078166e+00 1.6177907121083820e+01 7.0160896999060958e+00 1.4673805304830942e+00 0 0 0
54 1 1.4070403269798590e+00 1.6177907120855327e+01 7.0160896995038886e+00 4.4480641508782615e+00 0 0 0
55 1 1.4070404604767459e+00 1.6177907120625978e+01 7.0160896991015900e+00 7.4287478421303428e+00 0 0 0
56 1 1.4070403269607858e+00 1.6177907120854361e+01 7.0160896995038957e+00 1.0409431202719993e+01 0 0 0
57 1 1.4070404337691282e+00 1.6177907455794927e+01 1.1596998820983469e+01 1.4673805304949099e+00 0 0 0
58 1 1.4070405682276230e+00 1.6177907455652079e+01 1.1596998821118357e+01 4.4480641508458980e+00 0 0 0
59 1 1.4070407042534081e+00 1.6177907455508048e+01 1.1596998821253967e+01 7.4287478421420241e+00 0 0 0
60 1 1.4070405682509290e+00 1.6177907455650875e+01 1.1596998821119097e+01 1.0409431202728959e+01 0 0 0
121 1 1.4070395851045969e+00 1.3887453347397003e+01 9.3065443636173342e+00 1.1899773151427922e+01 0 0 -1
122 1 1.4070402144300227e+00 1.3887453347379754e+01 9.3065443636061751e+00 2.9577223647182773e+00 0 0 0
123 1 1.4070397740158478e+00 1.3887453347350929e+01 9.3065443636061822e+00 5.9384060207271760e+00 0 0 0
124 1 1.4070404033776254e+00 1.3887453347334038e+01 9.3065443635950800e+00 8.9190894953622468e+00 0 0 0
181 2 -7.0351960547860881e-01 1.4792489961852684e+01 8.4015074526161211e+00 1.4673804392645216e+00 0 0 0
182 2 -7.0351947935751658e-01 1.4792489934490863e+01 8.4015074801093252e+00 4.4480640576686614e+00 0 0 0
183 2 -7.0351935211829042e-01 1.4792489907138481e+01 8.4015075075930703e+00 7.4287477510490856e+00 0 0 0
184 2 -7.0351947934324344e-01 1.4792489934520690e+01 8.4015074800794718e+00 1.0409431472760440e+01 0 0 0
233 2 -7.0352084012525862e-01 1.2982416757760211e+01 1.0211580792258543e+01 1.4673804392619270e+00 0 0 0
234 2 -7.0352071073575995e-01 1.2982416785163259e+01 1.0211580764755977e+01 4.4480640576198267e+00 0 0 0
235 2 -7.0352058020331376e-01 1.2982416812556162e+01 1.0211580737262910e+01 7.4287477510463598e+00 0 0 0
236 2 -7.0352071069657318e-01 1.2982416785132669e+01 1.0211580764785918e+01 1.0409431472814749e+01 0 0 0
249 2 -7.0351855826797449e-01 1.7563326001370093e+01 1.0211580677409334e+01 1.4673804392605343e+00 0 0 0
250 2 -7.0351843284356586e-01 1.7563326028896032e+01 1.0211580649857385e+01 4.4480640578265778e+00 0 0 0
251 2 -7.0351830630053747e-01 1.7563326056412627e+01 1.0211580622315100e+01 7.4287477510454050e+00 0 0 0
252 2 -7.0351843282866211e-01 1.7563326028866236e+01 1.0211580649887503e+01 1.0409431472610221e+01 0 0 0
313 2 -7.0351910661577621e-01 1.5272871311290919e+01 1.0691962412622857e+01 1.1899773255839401e+01 0 0 -1
314 2 -7.0351866048844447e-01 1.5272871318015538e+01 1.0691962419340234e+01 2.9577222630594773e+00 0 0 0
315 2 -7.0351893027298040e-01 1.5272871334884316e+01 1.0691962435935611e+01 5.9384059188422089e+00 0 0 0
316 2 -7.0351848407402695e-01 1.5272871341641961e+01 1.0691962442685256e+01 8.9190895999636464e+00 0 0 0
357 2 -7.0352243830170458e-01 1.2502035217028075e+01 7.9211262850003381e+00 1.1899773255891498e+01 0 0 -1
358 2 -7.0352199211473709e-01 1.2502035210293961e+01 7.9211262782693321e+00 2.9577222630074926e+00 0 0 0
359 2 -7.0352226065165635e-01 1.2502035193449853e+01 7.9211262616749956e+00 5.9384059187900560e+00 0 0 0
360 2 -7.0352181443123118e-01 1.2502035186683107e+01 7.9211262549118242e+00 8.9190896000155817e+00 0 0 0
373 2 -7.0351902830144986e-01 1.7082943803700914e+01 7.9211260753030919e+00 1.1899773255704877e+01 0 0 -1
374 2 -7.0351858191996819e-01 1.7082943796973122e+01 7.9211260685774345e+00 2.9577222631938387e+00 0 0 0
375 2 -7.0351885646543755e-01 1.7082943780237095e+01 7.9211260518655235e+00 5.9384059189765805e+00 0 0 0
376 2 -7.0351841007770632e-01 1.7082943773477897e+01 7.9211260451075640e+00 8.9190895998291388e+00 0 0 0
13 1 1.4070416367207739e+00 2.4351809339655679e+00 1.6177907423335927e+01 1.4673805304799641e+00 0 0 0
14 1 1.4070417648489097e+00 2.4351809341328461e+00 1.6177907423153410e+01 4.4480641509741004e+00 0 0 0
15 1 1.4070418944819572e+00 2.4351809343008091e+00 1.6177907422969920e+01 7.4287478421261879e+00 0 0 0
16 1 1.4070417648099305e+00 2.4351809341335455e+00 1.6177907423152405e+01 1.0409431202631435e+01 0 0 0
77 1 1.4070369837110095e+00 1.4472662781445567e-01 1.3887453269556920e+01 1.1899773151385126e+01 0 0 -1
78 1 1.4070376130746824e+00 1.4472662779677092e-01 1.3887453269535452e+01 2.9577223647617141e+00 0 0 0
79 1 1.4070371659875855e+00 1.4472662793550764e-01 1.3887453269524350e+01 5.9384060207699498e+00 0 0 0
80 1 1.4070377953646536e+00 1.4472662791681254e-01 1.3887453269503148e+01 8.9190894953187652e+00 0 0 0
93 1 1.4070381679683972e+00 4.7256355144625726e+00 1.3887453314372259e+01 1.1899773151080730e+01 0 0 -1
94 1 1.4070387972158025e+00 4.7256355144539537e+00 1.3887453314359641e+01 2.9577223650650795e+00 0 0 0
95 1 1.4070383523238166e+00 4.7256355144206204e+00 1.3887453314307896e+01 5.9384060210743783e+00 0 0 0
96 1 1.4070389815551123e+00 4.7256355144128923e+00 1.3887453314295728e+01 8.9190894950153599e+00 0 0 0
137 2 -7.0352341779841687e-01 1.0497631219708004e+00 1.2982416727914295e+01 1.4673804392633469e+00 0 0 0
138 2 -7.0352329534807967e-01 1.0497630944584395e+00 1.2982416755302788e+01 4.4480640576002912e+00 0 0 0
139 2 -7.0352317179032287e-01 1.0497630669558800e+00 1.2982416782681668e+01 7.4287477510483582e+00 0 0 0
140 2 -7.0352329534428382e-01 1.0497630944886691e+00 1.2982416755272730e+01 1.0409431472830759e+01 0 0 0
141 2 -7.0352003669269447e-01 1.0497629381996239e+00 1.7563325931713024e+01 1.4673804392620768e+00 0 0 0
142 2 -7.0351991818493675e-01 1.0497629106379049e+00 1.7563325959224507e+01 4.4480640578069401e+00 0 0 0
143 2 -7.0351979861145775e-01 1.0497628830859431e+00 1.7563325986726930e+01 7.4287477510470996e+00 0 0 0
144 2 -7.0351991822312909e-01 1.0497629106680928e+00 1.7563325959195016e+01 1.0409431472626517e+01 0 0 0
153 2 -7.0352293601305849e-01 5.6306722061791135e+00 1.2982416549640632e+01 1.4673804392650598e+00 0 0 0
154 2 -7.0352281066991651e-01 5.6306721788403911e+00 1.2982416577012073e+01 4.4480640574310533e+00 0 0 0
155 2 -7.0352268423256614e-01 5.6306721515111811e+00 1.2982416604373752e+01 7.4287477510492188e+00 0 0 0
156 2 -7.0352281067934275e-01 5.6306721788703387e+00 1.2982416576981867e+01 1.0409431472997422e+01 0 0 0
157 2 -7.0351970000378572e-01 5.6306720566668398e+00 1.7563325784529493e+01 1.4673804392637284e+00 0 0 0
158 2 -7.0351957861237002e-01 5.6306720292785739e+00 1.7563325812024022e+01 4.4480640576376587e+00 0 0 0
159 2 -7.0351945615541556e-01 5.6306720018998018e+00 1.7563325839509304e+01 7.4287477510481903e+00 0 0 0
160 2 -7.0351957865051351e-01 5.6306720293085197e+00 1.7563325811994300e+01 1.0409431472793054e+01 0 0 0