# LAMMPS data file written by Ovito Basic 3.0.0-dev791, anatase
768 atoms
2 atom types
0.0 15.2108402252 xlo xhi
0.0 15.2108402252 ylo yhi
0.0 38.9910087585 zlo zhi

Atoms  # charge

1 1 0.0 0.0 1.901355028 2.436938047
2 1 0.0 0.0 1.901355028 12.184690475
3 1 0.0 0.0 1.901355028 21.932441711
4 1 0.0 0.0 1.901355028 31.680194855
5 1 0.0 0.0 5.704065323 2.436938047
6 1 0.0 0.0 5.704065323 12.184690475
7 1 0.0 0.0 5.704065323 21.932441711
8 1 0.0 0.0 5.704065323 31.680194855
9 1 0.0 0.0 9.506774902 2.436938047
10 1 0.0 0.0 9.506774902 12.184690475
11 1 0.0 0.0 9.506774902 21.932441711
12 1 0.0 0.0 9.506774902 31.680194855
13 1 0.0 0.0 13.309485435 2.436938047
14 1 0.0 0.0 13.309485435 12.184690475
15 1 0.0 0.0 13.309485435 21.932441711
16 1 0.0 0.0 13.309485435 31.680194855
17 1 0.0 3.802710056 1.901355028 2.436938047
18 1 0.0 3.802710056 1.901355028 12.184690475
19 1 0.0 3.802710056 1.901355028 21.932441711
20 1 0.0 3.802710056 1.901355028 31.680194855
21 1 0.0 3.802710056 5.704065323 2.436938047
22 1 0.0 3.802710056 5.704065323 12.184690475
23 1 0.0 3.802710056 5.704065323 21.932441711
24 1 0.0 3.802710056 5.704065323 31.680194855
25 1 0.0 3.802710056 9.506774902 2.436938047
26 1 0.0 3.802710056 9.506774902 12.184690475
27 1 0.0 3.802710056 9.506774902 21.932441711
28 1 0.0 3.802710056 9.506774902 31.680194855
29 1 0.0 3.802710056 13.309485435 2.436938047
30 1 0.0 3.802710056 13.309485435 12.184690475
31 1 0.0 3.802710056 13.309485435 21.932441711
32 1 0.0 3.802710056 13.309485435 31.680194855
33 1 0.0 7.605420113 1.901355028 2.436938047
34 1 0.0 7.605420113 1.901355028 12.184690475
35 1 0.0 7.605420113 1.901355028 21.932441711
36 1 0.0 7.605420113 1.901355028 31.680194855
37 1 0.0 7.605420113 5.704065323 2.436938047
38 1 0.0 7.605420113 5.704065323 12.184690475
39 1 0.0 7.605420113 5.704065323 21.932441711
40 1 0.0 7.605420113 5.704065323 31.680194855
41 1 0.0 7.605420113 9.506774902 2.436938047
42 1 0.0 7.605420113 9.506774902 12.184690475
43 1 0.0 7.605420113 9.506774902 21.932441711
44 1 0.0 7.605420113 9.506774902 31.680194855
45 1 0.0 7.605420113 13.309485435 2.436938047
46 1 0.0 7.605420113 13.309485435 12.184690475
47 1 0.0 7.605420113 13.309485435 21.932441711
48 1 0.0 7.605420113 13.309485435 31.680194855
49 1 0.0 11.408130646 1.901355028 2.436938047
50 1 0.0 11.408130646 1.901355028 12.184690475
51 1 0.0 11.408130646 1.901355028 21.932441711
52 1 0.0 11.408130646 1.901355028 31.680194855
53 1 0.0 11.408130646 5.704065323 2.436938047
54 1 0.0 11.408130646 5.704065323 12.184690475
55 1 0.0 11.408130646 5.704065323 21.932441711
56 1 0.0 11.408130646 5.704065323 31.680194855
57 1 0.0 11.408130646 9.506774902 2.436938047
58 1 0.0 11.408130646 9.506774902 12.184690475
59 1 0.0 11.408130646 9.506774902 21.932441711
60 1 0.0 11.408130646 9.506774902 31.680194855
61 1 0.0 11.408130646 13.309485435 2.436938047
62 1 0.0 11.408130646 13.309485435 12.184690475
63 1 0.0 11.408130646 13.309485435 21.932441711
64 1 0.0 11.408130646 13.309485435 31.680194855
65 1 0.0 0.0 0.0 0.0
66 1 0.0 0.0 0.0 9.74775219
67 1 0.0 0.0 0.0 19.495504379
68 1 0.0 0.0 0.0 29.243255615
69 1 0.0 0.0 3.802710056 0.0
70 1 0.0 0.0 3.802710056 9.74775219
71 1 0.0 0.0 3.802710056 19.495504379
72 1 0.0 0.0 3.802710056 29.243255615
73 1 0.0 0.0 7.605420113 0.0
74 1 0.0 0.0 7.605420113 9.74775219
75 1 0.0 0.0 7.605420113 19.495504379
76 1 0.0 0.0 7.605420113 29.243255615
77 1 0.0 0.0 11.408130646 0.0
78 1 0.0 0.0 11.408130646 9.74775219
79 1 0.0 0.0 11.408130646 19.495504379
80 1 0.0 0.0 11.408130646 29.243255615
81 1 0.0 3.802710056 0.0 0.0
82 1 0.0 3.802710056 0.0 9.74775219
83 1 0.0 3.802710056 0.0 19.495504379
84 1 0.0 3.802710056 0.0 29.243255615
85 1 0.0 3.802710056 3.802710056 0.0
86 1 0.0 3.802710056 3.802710056 9.74775219
87 1 0.0 3.802710056 3.802710056 19.495504379
88 1 0.0 3.802710056 3.802710056 29.243255615
89 1 0.0 3.802710056 7.605420113 0.0
90 1 0.0 3.802710056 7.605420113 9.74775219
91 1 0.0 3.802710056 7.605420113 19.495504379
92 1 0.0 3.802710056 7.605420113 29.243255615
93 1 0.0 3.802710056 11.408130646 0.0
94 1 0.0 3.802710056 11.408130646 9.74775219
95 1 0.0 3.802710056 11.408130646 19.495504379
96 1 0.0 3.802710056 11.408130646 29.243255615
97 1 0.0 7.605420113 0.0 0.0
98 1 0.0 7.605420113 0.0 9.74775219
99 1 0.0 7.605420113 0.0 19.495504379
100 1 0.0 7.605420113 0.0 29.243255615
101 1 0.0 7.605420113 3.802710056 0.0
102 1 0.0 7.605420113 3.802710056 9.74775219
103 1 0.0 7.605420113 3.802710056 19.495504379
104 1 0.0 7.605420113 3.802710056 29.243255615
105 1 0.0 7.605420113 7.605420113 0.0
106 1 0.0 7.605420113 7.605420113 9.74775219
107 1 0.0 7.605420113 7.605420113 19.495504379
108 1 0.0 7.605420113 7.605420113 29.243255615
109 1 0.0 7.605420113 11.408130646 0.0
110 1 0.0 7.605420113 11.408130646 9.74775219
111 1 0.0 7.605420113 11.408130646 19.495504379
112 1 0.0 7.605420113 11.408130646 29.243255615
113 1 0.0 11.408130646 0.0 0.0
114 1 0.0 11.408130646 0.0 9.74775219
115 1 0.0 11.408130646 0.0 19.495504379
116 1 0.0 11.408130646 0.0 29.243255615
117 1 0.0 11.408130646 3.802710056 0.0
118 1 0.0 11.408130646 3.802710056 9.74775219
119 1 0.0 11.408130646 3.802710056 19.495504379
120 1 0.0 11.408130646 3.802710056 29.243255615
121 1 0.0 11.408130646 7.605420113 0.0
122 1 0.0 11.408130646 7.605420113 9.74775219
123 1 0.0 11.408130646 7.605420113 19.495504379
124 1 0.0 11.408130646 7.605420113 29.243255615
125 1 0.0 11.408130646 11.408130646 0.0
126 1 0.0 11.408130646 11.408130646 9.74775219
127 1 0.0 11.408130646 11.408130646 19.495504379
128 1 0.0 11.408130646 11.408130646 29.243255615
129 1 0.0 1.901355028 0.0 7.310813904
130 1 0.0 1.901355028 0.0 17.058567047
131 1 0.0 1.901355028 0.0 26.806318283
132 1 0.0 1.901355028 0.0 36.554069519
133 1 0.0 1.901355028 3.802710056 7.310813904
134 1 0.0 1.901355028 3.802710056 17.058567047
135 1 0.0 1.901355028 3.802710056 26.806318283
136 1 0.0 1.901355028 3.802710056 36.554069519
137 1 0.0 1.901355028 7.605420113 7.310813904
138 1 0.0 1.901355028 7.605420113 17.058567047
139 1 0.0 1.901355028 7.605420113 26.806318283
140 1 0.0 1.901355028 7.605420113 36.554069519
141 1 0.0 1.901355028 11.408130646 7.310813904
142 1 0.0 1.901355028 11.408130646 17.058567047
143 1 0.0 1.901355028 11.408130646 26.806318283
144 1 0.0 1.901355028 11.408130646 36.554069519
145 1 0.0 5.704065323 0.0 7.310813904
146 1 0.0 5.704065323 0.0 17.058567047
147 1 0.0 5.704065323 0.0 26.806318283
148 1 0.0 5.704065323 0.0 36.554069519
149 1 0.0 5.704065323 3.802710056 7.310813904
150 1 0.0 5.704065323 3.802710056 17.058567047
151 1 0.0 5.704065323 3.802710056 26.806318283
152 1 0.0 5.704065323 3.802710056 36.554069519
153 1 0.0 5.704065323 7.605420113 7.310813904
154 1 0.0 5.704065323 7.605420113 17.058567047
155 1 0.0 5.704065323 7.605420113 26.806318283
156 1 0.0 5.704065323 7.605420113 36.554069519
157 1 0.0 5.704065323 11.408130646 7.310813904
158 1 0.0 5.704065323 11.408130646 17.058567047
159 1 0.0 5.704065323 11.408130646 26.806318283
160 1 0.0 5.704065323 11.408130646 36.554069519
161 1 0.0 9.506774902 0.0 7.310813904
162 1 0.0 9.506774902 0.0 17.058567047
163 1 0.0 9.506774902 0.0 26.806318283
164 1 0.0 9.506774902 0.0 36.554069519
165 1 0.0 9.506774902 3.802710056 7.310813904
166 1 0.0 9.506774902 3.802710056 17.058567047
167 1 0.0 9.506774902 3.802710056 26.806318283
168 1 0.0 9.506774902 3.802710056 36.554069519
169 1 0.0 9.506774902 7.605420113 7.310813904
170 1 0.0 9.506774902 7.605420113 17.058567047
171 1 0.0 9.506774902 7.605420113 26.806318283
172 1 0.0 9.506774902 7.605420113 36.554069519
173 1 0.0 9.506774902 11.408130646 7.310813904
174 1 0.0 9.506774902 11.408130646 17.058567047
175 1 0.0 9.506774902 11.408130646 26.806318283
176 1 0.0 9.506774902 11.408130646 36.554069519
177 1 0.0 13.309485435 0.0 7.310813904
178 1 0.0 13.309485435 0.0 17.058567047
179 1 0.0 13.309485435 0.0 26.806318283
180 1 0.0 13.309485435 0.0 36.554069519
181 1 0.0 13.309485435 3.802710056 7.310813904
182 1 0.0 13.309485435 3.802710056 17.058567047
183 1 0.0 13.309485435 3.802710056 26.806318283
184 1 0.0 13.309485435 3.802710056 36.554069519
185 1 0.0 13.309485435 7.605420113 7.310813904
186 1 0.0 13.309485435 7.605420113 17.058567047
187 1 0.0 13.309485435 7.605420113 26.806318283
188 1 0.0 13.309485435 7.605420113 36.554069519
189 1 0.0 13.309485435 11.408130646 7.310813904
190 1 0.0 13.309485435 11.408130646 17.058567047
191 1 0.0 13.309485435 11.408130646 26.806318283
192 1 0.0 13.309485435 11.408130646 36.554069519
193 1 0.0 1.901355028 1.901355028 4.873876095
194 1 0.0 1.901355028 1.901355028 14.621627808
195 1 0.0 1.901355028 1.901355028 24.369380951
196 1 0.0 1.901355028 1.901355028 34.117134094
197 1 0.0 1.901355028 5.704065323 4.873876095
198 1 0.0 1.901355028 5.704065323 14.621627808
199 1 0.0 1.901355028 5.704065323 24.369380951
200 1 0.0 1.901355028 5.704065323 34.117134094
201 1 0.0 1.901355028 9.506774902 4.873876095
202 1 0.0 1.901355028 9.506774902 14.621627808
203 1 0.0 1.901355028 9.506774902 24.369380951
204 1 0.0 1.901355028 9.506774902 34.117134094
205 1 0.0 1.901355028 13.309485435 4.873876095
206 1 0.0 1.901355028 13.309485435 14.621627808
207 1 0.0 1.901355028 13.309485435 24.369380951
208 1 0.0 1.901355028 13.309485435 34.117134094
209 1 0.0 5.704065323 1.901355028 4.873876095
210 1 0.0 5.704065323 1.901355028 14.621627808
211 1 0.0 5.704065323 1.901355028 24.369380951
212 1 0.0 5.704065323 1.901355028 34.117134094
213 1 0.0 5.704065323 5.704065323 4.873876095
214 1 0.0 5.704065323 5.704065323 14.621627808
215 1 0.0 5.704065323 5.704065323 24.369380951
216 1 0.0 5.704065323 5.704065323 34.117134094
217 1 0.0 5.704065323 9.506774902 4.873876095
218 1 0.0 5.704065323 9.506774902 14.621627808
219 1 0.0 5.704065323 9.506774902 24.369380951
220 1 0.0 5.704065323 9.506774902 34.117134094
221 1 0.0 5.704065323 13.309485435 4.873876095
222 1 0.0 5.704065323 13.309485435 14.621627808
223 1 0.0 5.704065323 13.309485435 24.369380951
224 1 0.0 5.704065323 13.309485435 34.117134094
225 1 0.0 9.506774902 1.901355028 4.873876095
226 1 0.0 9.506774902 1.901355028 14.621627808
227 1 0.0 9.506774902 1.901355028 24.369380951
228 1 0.0 9.506774902 1.901355028 34.117134094
229 1 0.0 9.506774902 5.704065323 4.873876095
230 1 0.0 9.506774902 5.704065323 14.621627808
231 1 0.0 9.506774902 5.704065323 24.369380951
232 1 0.0 9.506774902 5.704065323 34.117134094
233 1 0.0 9.506774902 9.506774902 4.873876095
234 1 0.0 9.506774902 9.506774902 14.621627808
235 1 0.0 9.506774902 9.506774902 24.369380951
236 1 0.0 9.506774902 9.506774902 34.117134094
237 1 0.0 9.506774902 13.309485435 4.873876095
238 1 0.0 9.506774902 13.309485435 14.621627808
239 1 0.0 9.506774902 13.309485435 24.369380951
240 1 0.0 9.506774902 13.309485435 34.117134094
241 1 0.0 13.309485435 1.901355028 4.873876095
242 1 0.0 13.309485435 1.901355028 14.621627808
243 1 0.0 13.309485435 1.901355028 24.369380951
244 1 0.0 13.309485435 1.901355028 34.117134094
245 1 0.0 13.309485435 5.704065323 4.873876095
246 1 0.0 13.309485435 5.704065323 14.621627808
247 1 0.0 13.309485435 5.704065323 24.369380951
248 1 0.0 13.309485435 5.704065323 34.117134094
249 1 0.0 13.309485435 9.506774902 4.873876095
250 1 0.0 13.309485435 9.506774902 14.621627808
251 1 0.0 13.309485435 9.506774902 24.369380951
252 1 0.0 13.309485435 9.506774902 34.117134094
253 1 0.0 13.309485435 13.309485435 4.873876095
254 1 0.0 13.309485435 13.309485435 14.621627808
255 1 0.0 13.309485435 13.309485435 24.369380951
256 1 0.0 13.309485435 13.309485435 34.117134094
257 2 0.0 0.0 1.901355028 4.446563721
258 2 0.0 0.0 1.901355028 14.194314957
259 2 0.0 0.0 1.901355028 23.9420681
260 2 0.0 0.0 1.901355028 33.689819336
261 2 0.0 0.0 5.704065323 4.446563721
262 2 0.0 0.0 5.704065323 14.194314957
263 2 0.0 0.0 5.704065323 23.9420681
264 2 0.0 0.0 5.704065323 33.689819336
265 2 0.0 0.0 9.506774902 4.446563721
266 2 0.0 0.0 9.506774902 14.194314957
267 2 0.0 0.0 9.506774902 23.9420681
268 2 0.0 0.0 9.506774902 33.689819336
269 2 0.0 0.0 13.309485435 4.446563721
270 2 0.0 0.0 13.309485435 14.194314957
271 2 0.0 0.0 13.309485435 23.9420681
272 2 0.0 0.0 13.309485435 33.689819336
273 2 0.0 3.802710056 1.901355028 4.446563721
274 2 0.0 3.802710056 1.901355028 14.194314957
275 2 0.0 3.802710056 1.901355028 23.9420681
276 2 0.0 3.802710056 1.901355028 33.689819336
277 2 0.0 3.802710056 5.704065323 4.446563721
278 2 0.0 3.802710056 5.704065323 14.194314957
279 2 0.0 3.802710056 5.704065323 23.9420681
280 2 0.0 3.802710056 5.704065323 33.689819336
281 2 0.0 3.802710056 9.506774902 4.446563721
282 2 0.0 3.802710056 9.506774902 14.194314957
283 2 0.0 3.802710056 9.506774902 23.9420681
284 2 0.0 3.802710056 9.506774902 33.689819336
285 2 0.0 3.802710056 13.309485435 4.446563721
286 2 0.0 3.802710056 13.309485435 14.194314957
287 2 0.0 3.802710056 13.309485435 23.9420681
288 2 0.0 3.802710056 13.309485435 33.689819336
289 2 0.0 7.605420113 1.901355028 4.446563721
290 2 0.0 7.605420113 1.901355028 14.194314957
291 2 0.0 7.605420113 1.901355028 23.9420681
292 2 0.0 7.605420113 1.901355028 33.689819336
293 2 0.0 7.605420113 5.704065323 4.446563721
294 2 0.0 7.605420113 5.704065323 14.194314957
295 2 0.0 7.605420113 5.704065323 23.9420681
296 2 0.0 7.605420113 5.704065323 33.689819336
297 2 0.0 7.605420113 9.506774902 4.446563721
298 2 0.0 7.605420113 9.506774902 14.194314957
299 2 0.0 7.605420113 9.506774902 23.9420681
300 2 0.0 7.605420113 9.506774902 33.689819336
301 2 0.0 7.605420113 13.309485435 4.446563721
302 2 0.0 7.605420113 13.309485435 14.194314957
303 2 0.0 7.605420113 13.309485435 23.9420681
304 2 0.0 7.605420113 13.309485435 33.689819336
305 2 0.0 11.408130646 1.901355028 4.446563721
306 2 0.0 11.408130646 1.901355028 14.194314957
307 2 0.0 11.408130646 1.901355028 23.9420681
308 2 0.0 11.408130646 1.901355028 33.689819336
309 2 0.0 11.408130646 5.704065323 4.446563721
310 2 0.0 11.408130646 5.704065323 14.194314957
311 2 0.0 11.408130646 5.704065323 23.9420681
312 2 0.0 11.408130646 5.704065323 33.689819336
313 2 0.0 11.408130646 9.506774902 4.446563721
314 2 0.0 11.408130646 9.506774902 14.194314957
315 2 0.0 11.408130646 9.506774902 23.9420681
316 2 0.0 11.408130646 9.506774902 33.689819336
317 2 0.0 11.408130646 13.309485435 4.446563721
318 2 0.0 11.408130646 13.309485435 14.194314957
319 2 0.0 11.408130646 13.309485435 23.9420681
320 2 0.0 11.408130646 13.309485435 33.689819336
321 2 0.0 1.901355028 1.901355028 2.864250422
322 2 0.0 1.901355028 1.901355028 12.612003326
323 2 0.0 1.901355028 1.901355028 22.359754562
324 2 0.0 1.901355028 1.901355028 32.107505798
325 2 0.0 1.901355028 5.704065323 2.864250422
326 2 0.0 1.901355028 5.704065323 12.612003326
327 2 0.0 1.901355028 5.704065323 22.359754562
328 2 0.0 1.901355028 5.704065323 32.107505798
329 2 0.0 1.901355028 9.506774902 2.864250422
330 2 0.0 1.901355028 9.506774902 12.612003326
331 2 0.0 1.901355028 9.506774902 22.359754562
332 2 0.0 1.901355028 9.506774902 32.107505798
333 2 0.0 1.901355028 13.309485435 2.864250422
334 2 0.0 1.901355028 13.309485435 12.612003326
335 2 0.0 1.901355028 13.309485435 22.359754562
336 2 0.0 1.901355028 13.309485435 32.107505798
337 2 0.0 5.704065323 1.901355028 2.864250422
338 2 0.0 5.704065323 1.901355028 12.612003326
339 2 0.0 5.704065323 1.901355028 22.359754562
340 2 0.0 5.704065323 1.901355028 32.107505798
341 2 0.0 5.704065323 5.704065323 2.864250422
342 2 0.0 5.704065323 5.704065323 12.612003326
343 2 0.0 5.704065323 5.704065323 22.359754562
344 2 0.0 5.704065323 5.704065323 32.107505798
345 2 0.0 5.704065323 9.506774902 2.864250422
346 2 0.0 5.704065323 9.506774902 12.612003326
347 2 0.0 5.704065323 9.506774902 22.359754562
348 2 0.0 5.704065323 9.506774902 32.107505798
349 2 0.0 5.704065323 13.309485435 2.864250422
350 2 0.0 5.704065323 13.309485435 12.612003326
351 2 0.0 5.704065323 13.309485435 22.359754562
352 2 0.0 5.704065323 13.309485435 32.107505798
353 2 0.0 9.506774902 1.901355028 2.864250422
354 2 0.0 9.506774902 1.901355028 12.612003326
355 2 0.0 9.506774902 1.901355028 22.359754562
356 2 0.0 9.506774902 1.901355028 32.107505798
357 2 0.0 9.506774902 5.704065323 2.864250422
358 2 0.0 9.506774902 5.704065323 12.612003326
359 2 0.0 9.506774902 5.704065323 22.359754562
360 2 0.0 9.506774902 5.704065323 32.107505798
361 2 0.0 9.506774902 9.506774902 2.864250422
362 2 0.0 9.506774902 9.506774902 12.612003326
363 2 0.0 9.506774902 9.506774902 22.359754562
364 2 0.0 9.506774902 9.506774902 32.107505798
365 2 0.0 9.506774902 13.309485435 2.864250422
366 2 0.0 9.506774902 13.309485435 12.612003326
367 2 0.0 9.506774902 13.309485435 22.359754562
368 2 0.0 9.506774902 13.309485435 32.107505798
369 2 0.0 13.309485435 1.901355028 2.864250422
370 2 0.0 13.309485435 1.901355028 12.612003326
371 2 0.0 13.309485435 1.901355028 22.359754562
372 2 0.0 13.309485435 1.901355028 32.107505798
373 2 0.0 13.309485435 5.704065323 2.864250422
374 2 0.0 13.309485435 5.704065323 12.612003326
375 2 0.0 13.309485435 5.704065323 22.359754562
376 2 0.0 13.309485435 5.704065323 32.107505798
377 2 0.0 13.309485435 9.506774902 2.864250422
378 2 0.0 13.309485435 9.506774902 12.612003326
379 2 0.0 13.309485435 9.506774902 22.359754562
380 2 0.0 13.309485435 9.506774902 32.107505798
381 2 0.0 13.309485435 13.309485435 2.864250422
382 2 0.0 13.309485435 13.309485435 12.612003326
383 2 0.0 13.309485435 13.309485435 22.359754562
384 2 0.0 13.309485435 13.309485435 32.107505798
385 2 0.0 0.0 1.901355028 0.427312195
386 2 0.0 0.0 1.901355028 10.175064087
387 2 0.0 0.0 1.901355028 19.92281723
388 2 0.0 0.0 1.901355028 29.670570374
389 2 0.0 0.0 5.704065323 0.427312195
390 2 0.0 0.0 5.704065323 10.175064087
391 2 0.0 0.0 5.704065323 19.92281723
392 2 0.0 0.0 5.704065323 29.670570374
393 2 0.0 0.0 9.506774902 0.427312195
394 2 0.0 0.0 9.506774902 10.175064087
395 2 0.0 0.0 9.506774902 19.92281723
396 2 0.0 0.0 9.506774902 29.670570374
397 2 0.0 0.0 13.309485435 0.427312195
398 2 0.0 0.0 13.309485435 10.175064087
399 2 0.0 0.0 13.309485435 19.92281723
400 2 0.0 0.0 13.309485435 29.670570374
401 2 0.0 3.802710056 1.901355028 0.427312195
402 2 0.0 3.802710056 1.901355028 10.175064087
403 2 0.0 3.802710056 1.901355028 19.92281723
404 2 0.0 3.802710056 1.901355028 29.670570374
405 2 0.0 3.802710056 5.704065323 0.427312195
406 2 0.0 3.802710056 5.704065323 10.175064087
407 2 0.0 3.802710056 5.704065323 19.92281723
408 2 0.0 3.802710056 5.704065323 29.670570374
409 2 0.0 3.802710056 9.506774902 0.427312195
410 2 0.0 3.802710056 9.506774902 10.175064087
411 2 0.0 3.802710056 9.506774902 19.92281723
412 2 0.0 3.802710056 9.506774902 29.670570374
413 2 0.0 3.802710056 13.309485435 0.427312195
414 2 0.0 3.802710056 13.309485435 10.175064087
415 2 0.0 3.802710056 13.309485435 19.92281723
416 2 0.0 3.802710056 13.309485435 29.670570374
417 2 0.0 7.605420113 1.901355028 0.427312195
418 2 0.0 7.605420113 1.901355028 10.175064087
419 2 0.0 7.605420113 1.901355028 19.92281723
420 2 0.0 7.605420113 1.901355028 29.670570374
421 2 0.0 7.605420113 5.704065323 0.427312195
422 2 0.0 7.605420113 5.704065323 10.175064087
423 2 0.0 7.605420113 5.704065323 19.92281723
424 2 0.0 7.605420113 5.704065323 29.670570374
425 2 0.0 7.605420113 9.506774902 0.427312195
426 2 0.0 7.605420113 9.506774902 10.175064087
427 2 0.0 7.605420113 9.506774902 19.92281723
428 2 0.0 7.605420113 9.506774902 29.670570374
429 2 0.0 7.605420113 13.309485435 0.427312195
430 2 0.0 7.605420113 13.309485435 10.175064087
431 2 0.0 7.605420113 13.309485435 19.92281723
432 2 0.0 7.605420113 13.309485435 29.670570374
433 2 0.0 11.408130646 1.901355028 0.427312195
434 2 0.0 11.408130646 1.901355028 10.175064087
435 2 0.0 11.408130646 1.901355028 19.92281723
436 2 0.0 11.408130646 1.901355028 29.670570374
437 2 0.0 11.408130646 5.704065323 0.427312195
438 2 0.0 11.408130646 5.704065323 10.175064087
439 2 0.0 11.408130646 5.704065323 19.92281723
440 2 0.0 11.408130646 5.704065323 29.670570374
441 2 0.0 11.408130646 9.506774902 0.427312195
442 2 0.0 11.408130646 9.506774902 10.175064087
443 2 0.0 11.408130646 9.506774902 19.92281723
444 2 0.0 11.408130646 9.506774902 29.670570374
445 2 0.0 11.408130646 13.309485435 0.427312195
446 2 0.0 11.408130646 13.309485435 10.175064087
447 2 0.0 11.408130646 13.309485435 19.92281723
448 2 0.0 11.408130646 13.309485435 29.670570374
449 2 0.0 0.0 0.0 2.009625912
450 2 0.0 0.0 0.0 11.757378578
451 2 0.0 0.0 0.0 21.50512886
452 2 0.0 0.0 0.0 31.252882004
453 2 0.0 0.0 3.802710056 2.009625912
454 2 0.0 0.0 3.802710056 11.757378578
455 2 0.0 0.0 3.802710056 21.50512886
456 2 0.0 0.0 3.802710056 31.252882004
457 2 0.0 0.0 7.605420113 2.009625912
458 2 0.0 0.0 7.605420113 11.757378578
459 2 0.0 0.0 7.605420113 21.50512886
460 2 0.0 0.0 7.605420113 31.252882004
461 2 0.0 0.0 11.408130646 2.009625912
462 2 0.0 0.0 11.408130646 11.757378578
463 2 0.0 0.0 11.408130646 21.50512886
464 2 0.0 0.0 11.408130646 31.252882004
465 2 0.0 3.802710056 0.0 2.009625912
466 2 0.0 3.802710056 0.0 11.757378578
467 2 0.0 3.802710056 0.0 21.50512886
468 2 0.0 3.802710056 0.0 31.252882004
469 2 0.0 3.802710056 3.802710056 2.009625912
470 2 0.0 3.802710056 3.802710056 11.757378578
471 2 0.0 3.802710056 3.802710056 21.50512886
472 2 0.0 3.802710056 3.802710056 31.252882004
473 2 0.0 3.802710056 7.605420113 2.009625912
474 2 0.0 3.802710056 7.605420113 11.757378578
475 2 0.0 3.802710056 7.605420113 21.50512886
476 2 0.0 3.802710056 7.605420113 31.252882004
477 2 0.0 3.802710056 11.408130646 2.009625912
478 2 0.0 3.802710056 11.408130646 11.757378578
479 2 0.0 3.802710056 11.408130646 21.50512886
480 2 0.0 3.802710056 11.408130646 31.252882004
481 2 0.0 7.605420113 0.0 2.009625912
482 2 0.0 7.605420113 0.0 11.757378578
483 2 0.0 7.605420113 0.0 21.50512886
484 2 0.0 7.605420113 0.0 31.252882004
485 2 0.0 7.605420113 3.802710056 2.009625912
486 2 0.0 7.605420113 3.802710056 11.757378578
487 2 0.0 7.605420113 3.802710056 21.50512886
488 2 0.0 7.605420113 3.802710056 31.252882004
489 2 0.0 7.605420113 7.605420113 2.009625912
490 2 0.0 7.605420113 7.605420113 11.757378578
491 2 0.0 7.605420113 7.605420113 21.50512886
492 2 0.0 7.605420113 7.605420113 31.252882004
493 2 0.0 7.605420113 11.408130646 2.009625912
494 2 0.0 7.605420113 11.408130646 11.757378578
495 2 0.0 7.605420113 11.408130646 21.50512886
496 2 0.0 7.605420113 11.408130646 31.252882004
497 2 0.0 11.408130646 0.0 2.009625912
498 2 0.0 11.408130646 0.0 11.757378578
499 2 0.0 11.408130646 0.0 21.50512886
500 2 0.0 11.408130646 0.0 31.252882004
501 2 0.0 11.408130646 3.802710056 2.009625912
502 2 0.0 11.408130646 3.802710056 11.757378578
503 2 0.0 11.408130646 3.802710056 21.50512886
504 2 0.0 11.408130646 3.802710056 31.252882004
505 2 0.0 11.408130646 7.605420113 2.009625912
506 2 0.0 11.408130646 7.605420113 11.757378578
507 2 0.0 11.408130646 7.605420113 21.50512886
508 2 0.0 11.408130646 7.605420113 31.252882004
509 2 0.0 11.408130646 11.408130646 2.009625912
510 2 0.0 11.408130646 11.408130646 11.757378578
511 2 0.0 11.408130646 11.408130646 21.50512886
512 2 0.0 11.408130646 11.408130646 31.252882004
513 2 0.0 1.901355028 0.0 9.320440292
514 2 0.0 1.901355028 0.0 19.068191528
515 2 0.0 1.901355028 0.0 28.815942764
516 2 0.0 1.901355028 0.0 38.563694
517 2 0.0 1.901355028 3.802710056 9.320440292
518 2 0.0 1.901355028 3.802710056 19.068191528
519 2 0.0 1.901355028 3.802710056 28.815942764
520 2 0.0 1.901355028 3.802710056 38.563694
521 2 0.0 1.901355028 7.605420113 9.320440292
522 2 0.0 1.901355028 7.605420113 19.068191528
523 2 0.0 1.901355028 7.605420113 28.815942764
524 2 0.0 1.901355028 7.605420113 38.563694
525 2 0.0 1.901355028 11.408130646 9.320440292
526 2 0.0 1.901355028 11.408130646 19.068191528
527 2 0.0 1.901355028 11.408130646 28.815942764
528 2 0.0 1.901355028 11.408130646 38.563694
529 2 0.0 5.704065323 0.0 9.320440292
530 2 0.0 5.704065323 0.0 19.068191528
531 2 0.0 5.704065323 0.0 28.815942764
532 2 0.0 5.704065323 0.0 38.563694
533 2 0.0 5.704065323 3.802710056 9.320440292
534 2 0.0 5.704065323 3.802710056 19.068191528
535 2 0.0 5.704065323 3.802710056 28.815942764
536 2 0.0 5.704065323 3.802710056 38.563694
537 2 0.0 5.704065323 7.605420113 9.320440292
538 2 0.0 5.704065323 7.605420113 19.068191528
539 2 0.0 5.704065323 7.605420113 28.815942764
540 2 0.0 5.704065323 7.605420113 38.563694
541 2 0.0 5.704065323 11.408130646 9.320440292
542 2 0.0 5.704065323 11.408130646 19.068191528
543 2 0.0 5.704065323 11.408130646 28.815942764
544 2 0.0 5.704065323 11.408130646 38.563694
545 2 0.0 9.506774902 0.0 9.320440292
546 2 0.0 9.506774902 0.0 19.068191528
547 2 0.0 9.506774902 0.0 28.815942764
548 2 0.0 9.506774902 0.0 38.563694
549 2 0.0 9.506774902 3.802710056 9.320440292
550 2 0.0 9.506774902 3.802710056 19.068191528
551 2 0.0 9.506774902 3.802710056 28.815942764
552 2 0.0 9.506774902 3.802710056 38.563694
553 2 0.0 9.506774902 7.605420113 9.320440292
554 2 0.0 9.506774902 7.605420113 19.068191528
555 2 0.0 9.506774902 7.605420113 28.815942764
556 2 0.0 9.506774902 7.605420113 38.563694
557 2 0.0 9.506774902 11.408130646 9.320440292
558 2 0.0 9.506774902 11.408130646 19.068191528
559 2 0.0 9.506774902 11.408130646 28.815942764
560 2 0.0 9.506774902 11.408130646 38.563694
561 2 0.0 13.309485435 0.0 9.320440292
562 2 0.0 13.309485435 0.0 19.068191528
563 2 0.0 13.309485435 0.0 28.815942764
564 2 0.0 13.309485435 0.0 38.563694
565 2 0.0 13.309485435 3.802710056 9.320440292
566 2 0.0 13.309485435 3.802710056 19.068191528
567 2 0.0 13.309485435 3.802710056 28.815942764
568 2 0.0 13.309485435 3.802710056 38.563694
569 2 0.0 13.309485435 7.605420113 9.320440292
570 2 0.0 13.309485435 7.605420113 19.068191528
571 2 0.0 13.309485435 7.605420113 28.815942764
572 2 0.0 13.309485435 7.605420113 38.563694
573 2 0.0 13.309485435 11.408130646 9.320440292
574 2 0.0 13.309485435 11.408130646 19.068191528
575 2 0.0 13.309485435 11.408130646 28.815942764
576 2 0.0 13.309485435 11.408130646 38.563694
577 2 0.0 0.0 0.0 7.738126278
578 2 0.0 0.0 0.0 17.485879898
579 2 0.0 0.0 0.0 27.233631134
580 2 0.0 0.0 0.0 36.981384277
581 2 0.0 0.0 3.802710056 7.738126278
582 2 0.0 0.0 3.802710056 17.485879898
583 2 0.0 0.0 3.802710056 27.233631134
584 2 0.0 0.0 3.802710056 36.981384277
585 2 0.0 0.0 7.605420113 7.738126278
586 2 0.0 0.0 7.605420113 17.485879898
587 2 0.0 0.0 7.605420113 27.233631134
588 2 0.0 0.0 7.605420113 36.981384277
589 2 0.0 0.0 11.408130646 7.738126278
590 2 0.0 0.0 11.408130646 17.485879898
591 2 0.0 0.0 11.408130646 27.233631134
592 2 0.0 0.0 11.408130646 36.981384277
593 2 0.0 3.802710056 0.0 7.738126278
594 2 0.0 3.802710056 0.0 17.485879898
595 2 0.0 3.802710056 0.0 27.233631134
596 2 0.0 3.802710056 0.0 36.981384277
597 2 0.0 3.802710056 3.802710056 7.738126278
598 2 0.0 3.802710056 3.802710056 17.485879898
599 2 0.0 3.802710056 3.802710056 27.233631134
600 2 0.0 3.802710056 3.802710056 36.981384277
601 2 0.0 3.802710056 7.605420113 7.738126278
602 2 0.0 3.802710056 7.605420113 17.485879898
603 2 0.0 3.802710056 7.605420113 27.233631134
604 2 0.0 3.802710056 7.605420113 36.981384277
605 2 0.0 3.802710056 11.408130646 7.738126278
606 2 0.0 3.802710056 11.408130646 17.485879898
607 2 0.0 3.802710056 11.408130646 27.233631134
608 2 0.0 3.802710056 11.408130646 36.981384277
609 2 0.0 7.605420113 0.0 7.738126278
610 2 0.0 7.605420113 0.0 17.485879898
611 2 0.0 7.605420113 0.0 27.233631134
612 2 0.0 7.605420113 0.0 36.981384277
613 2 0.0 7.605420113 3.802710056 7.738126278
614 2 0.0 7.605420113 3.802710056 17.485879898
615 2 0.0 7.605420113 3.802710056 27.233631134
616 2 0.0 7.605420113 3.802710056 36.981384277
617 2 0.0 7.605420113 7.605420113 7.738126278
618 2 0.0 7.605420113 7.605420113 17.485879898
619 2 0.0 7.605420113 7.605420113 27.233631134
620 2 0.0 7.605420113 7.605420113 36.981384277
621 2 0.0 7.605420113 11.408130646 7.738126278
622 2 0.0 7.605420113 11.408130646 17.485879898
623 2 0.0 7.605420113 11.408130646 27.233631134
624 2 0.0 7.605420113 11.408130646 36.981384277
625 2 0.0 11.408130646 0.0 7.738126278
626 2 0.0 11.408130646 0.0 17.485879898
627 2 0.0 11.408130646 0.0 27.233631134
628 2 0.0 11.408130646 0.0 36.981384277
629 2 0.0 11.408130646 3.802710056 7.738126278
630 2 0.0 11.408130646 3.802710056 17.485879898
631 2 0.0 11.408130646 3.802710056 27.233631134
632 2 0.0 11.408130646 3.802710056 36.981384277
633 2 0.0 11.408130646 7.605420113 7.738126278
634 2 0.0 11.408130646 7.605420113 17.485879898
635 2 0.0 11.408130646 7.605420113 27.233631134
636 2 0.0 11.408130646 7.605420113 36.981384277
637 2 0.0 11.408130646 11.408130646 7.738126278
638 2 0.0 11.408130646 11.408130646 17.485879898
639 2 0.0 11.408130646 11.408130646 27.233631134
640 2 0.0 11.408130646 11.408130646 36.981384277
641 2 0.0 1.901355028 0.0 5.301188469
642 2 0.0 1.901355028 0.0 15.048941612
643 2 0.0 1.901355028 0.0 24.796693802
644 2 0.0 1.901355028 0.0 34.544445038
645 2 0.0 1.901355028 3.802710056 5.301188469
646 2 0.0 1.901355028 3.802710056 15.048941612
647 2 0.0 1.901355028 3.802710056 24.796693802
648 2 0.0 1.901355028 3.802710056 34.544445038
649 2 0.0 1.901355028 7.605420113 5.301188469
650 2 0.0 1.901355028 7.605420113 15.048941612
651 2 0.0 1.901355028 7.605420113 24.796693802
652 2 0.0 1.901355028 7.605420113 34.544445038
653 2 0.0 1.901355028 11.408130646 5.301188469
654 2 0.0 1.901355028 11.408130646 15.048941612
655 2 0.0 1.901355028 11.408130646 24.796693802